/*--------------------------------*- C++ -*----------------------------------*\
| =========                 |                                                 |
| \\      /  F ield         | OpenFOAM: The Open Source CFD Toolbox           |
|  \\    /   O peration     | Version:  5.x                                   |
|   \\  /    A nd           | Web:      www.OpenFOAM.org                      |
|    \\/     M anipulation  |                                                 |
\*---------------------------------------------------------------------------*/
/*   Windows 32 and 64 bit porting by blueCAPE: http://www.bluecape.com.pt   *\
|  Based on Windows porting (2.0.x v4) by Symscape: http://www.symscape.com   |
\*---------------------------------------------------------------------------*/
FoamFile
{
    version     2.0;
    format      ascii;
    class       volScalarField;
    location    "1.2";
    object      p;
}
// * * * * * * * * * * * * * * * * * * * * * * * * * * * * * * * * * * * * * //

dimensions      [0 2 -2 0 0 0 0];

internalField   nonuniform List<scalar> 
141075
(
-5.30481e-007
-5.30982e-007
-5.30917e-007
-5.30952e-007
-5.30912e-007
-5.30799e-007
-5.30658e-007
-5.30512e-007
-5.30371e-007
-5.30234e-007
-5.30076e-007
-5.29842e-007
-5.29451e-007
-5.28876e-007
-1.61779e-006
-1.61766e-006
-1.61668e-006
-1.61596e-006
-1.61535e-006
-1.6147e-006
-1.61402e-006
-1.61333e-006
-1.61269e-006
-1.61208e-006
-1.61147e-006
-1.61077e-006
-1.60984e-006
-1.60887e-006
-2.73608e-006
-2.7349e-006
-2.73303e-006
-2.73134e-006
-2.7298e-006
-2.72837e-006
-2.72702e-006
-2.72575e-006
-2.72454e-006
-2.72337e-006
-2.72219e-006
-2.72089e-006
-2.71928e-006
-2.71771e-006
-3.85523e-006
-3.85355e-006
-3.85099e-006
-3.84847e-006
-3.84601e-006
-3.84362e-006
-3.84136e-006
-3.83925e-006
-3.83732e-006
-3.83552e-006
-3.83376e-006
-3.83189e-006
-3.82962e-006
-3.82747e-006
-4.97507e-006
-4.97284e-006
-4.96952e-006
-4.96638e-006
-4.96336e-006
-4.96035e-006
-4.95741e-006
-4.95462e-006
-4.95202e-006
-4.9496e-006
-4.94728e-006
-4.94487e-006
-4.94203e-006
-4.93941e-006
-6.09728e-006
-6.0944e-006
-6.09011e-006
-6.08618e-006
-6.08253e-006
-6.07893e-006
-6.07542e-006
-6.07207e-006
-6.06893e-006
-6.06598e-006
-6.06313e-006
-6.06015e-006
-6.05667e-006
-6.05353e-006
-7.22351e-006
-7.22019e-006
-7.21517e-006
-7.21045e-006
-7.20599e-006
-7.20165e-006
-7.19745e-006
-7.19346e-006
-7.18971e-006
-7.18618e-006
-7.18273e-006
-7.17911e-006
-7.17488e-006
-7.17111e-006
-8.35295e-006
-8.34917e-006
-8.34348e-006
-8.33806e-006
-8.33286e-006
-8.32777e-006
-8.32283e-006
-8.31813e-006
-8.31372e-006
-8.30955e-006
-8.30548e-006
-8.30122e-006
-8.29628e-006
-8.29193e-006
-9.48529e-006
-9.48098e-006
-9.47451e-006
-9.4684e-006
-9.46258e-006
-9.45685e-006
-9.45128e-006
-9.44595e-006
-9.44093e-006
-9.43619e-006
-9.43157e-006
-9.42676e-006
-9.42121e-006
-9.41633e-006
-1.0621e-005
-1.06161e-005
-1.06089e-005
-1.06021e-005
-1.05956e-005
-1.05892e-005
-1.0583e-005
-1.05771e-005
-1.05714e-005
-1.05661e-005
-1.05609e-005
-1.05554e-005
-1.05491e-005
-1.05436e-005
-1.176e-005
-1.17547e-005
-1.17467e-005
-1.17392e-005
-1.17321e-005
-1.17251e-005
-1.17182e-005
-1.17116e-005
-1.17054e-005
-1.16993e-005
-1.16934e-005
-1.16872e-005
-1.16801e-005
-1.16739e-005
-1.29022e-005
-1.28964e-005
-1.28877e-005
-1.28795e-005
-1.28718e-005
-1.28641e-005
-1.28566e-005
-1.28494e-005
-1.28426e-005
-1.28359e-005
-1.28294e-005
-1.28225e-005
-1.28148e-005
-1.28081e-005
-1.4047e-005
-1.40407e-005
-1.40313e-005
-1.40224e-005
-1.4014e-005
-1.40057e-005
-1.39976e-005
-1.39898e-005
-1.39823e-005
-1.39752e-005
-1.39681e-005
-1.39608e-005
-1.39525e-005
-1.39453e-005
-1.51941e-005
-1.51873e-005
-1.51771e-005
-1.51676e-005
-1.51585e-005
-1.51495e-005
-1.51408e-005
-1.51323e-005
-1.51242e-005
-1.51164e-005
-1.51087e-005
-1.51007e-005
-1.50917e-005
-1.50839e-005
-1.63432e-005
-1.63359e-005
-1.63249e-005
-1.63147e-005
-1.6305e-005
-1.62954e-005
-1.62859e-005
-1.62768e-005
-1.62679e-005
-1.62593e-005
-1.62508e-005
-1.6242e-005
-1.62322e-005
-1.62239e-005
-1.7494e-005
-1.74862e-005
-1.74745e-005
-1.74635e-005
-1.74531e-005
-1.74428e-005
-1.74327e-005
-1.74228e-005
-1.74132e-005
-1.74039e-005
-1.73947e-005
-1.73852e-005
-1.73748e-005
-1.73661e-005
-1.86459e-005
-1.86376e-005
-1.86252e-005
-1.86135e-005
-1.86023e-005
-1.85913e-005
-1.85805e-005
-1.857e-005
-1.85597e-005
-1.85498e-005
-1.85399e-005
-1.85298e-005
-1.8519e-005
-1.85099e-005
-1.97982e-005
-1.97893e-005
-1.97761e-005
-1.97636e-005
-1.97518e-005
-1.97402e-005
-1.97287e-005
-1.97175e-005
-1.97066e-005
-1.9696e-005
-1.96855e-005
-1.96748e-005
-1.96634e-005
-1.96541e-005
-2.09502e-005
-2.09408e-005
-2.09267e-005
-2.09135e-005
-2.0901e-005
-2.08887e-005
-2.08766e-005
-2.08646e-005
-2.0853e-005
-2.08416e-005
-2.08303e-005
-2.08189e-005
-2.0807e-005
-2.07975e-005
-2.21016e-005
-2.20916e-005
-2.20767e-005
-2.20627e-005
-2.20494e-005
-2.20364e-005
-2.20235e-005
-2.20108e-005
-2.19983e-005
-2.19861e-005
-2.1974e-005
-2.19618e-005
-2.19495e-005
-2.19398e-005
-2.32518e-005
-2.32412e-005
-2.32253e-005
-2.32105e-005
-2.31965e-005
-2.31827e-005
-2.31691e-005
-2.31556e-005
-2.31423e-005
-2.31292e-005
-2.31164e-005
-2.31035e-005
-2.30907e-005
-2.30809e-005
-2.44002e-005
-2.4389e-005
-2.43723e-005
-2.43566e-005
-2.43418e-005
-2.43273e-005
-2.43128e-005
-2.42986e-005
-2.42846e-005
-2.42707e-005
-2.42571e-005
-2.42436e-005
-2.42304e-005
-2.42205e-005
-2.5546e-005
-2.55343e-005
-2.55166e-005
-2.55002e-005
-2.54847e-005
-2.54694e-005
-2.54543e-005
-2.54393e-005
-2.54245e-005
-2.54099e-005
-2.53955e-005
-2.53813e-005
-2.53676e-005
-2.53577e-005
-2.66886e-005
-2.66763e-005
-2.66577e-005
-2.66404e-005
-2.66242e-005
-2.66082e-005
-2.65924e-005
-2.65767e-005
-2.65612e-005
-2.65458e-005
-2.65307e-005
-2.65158e-005
-2.65017e-005
-2.64915e-005
-2.7827e-005
-2.78141e-005
-2.77946e-005
-2.77765e-005
-2.77595e-005
-2.77428e-005
-2.77263e-005
-2.77099e-005
-2.76937e-005
-2.76776e-005
-2.76617e-005
-2.76462e-005
-2.76315e-005
-2.7621e-005
-2.89602e-005
-2.89467e-005
-2.89263e-005
-2.89074e-005
-2.88897e-005
-2.88722e-005
-2.8855e-005
-2.88379e-005
-2.88209e-005
-2.88041e-005
-2.87875e-005
-2.87713e-005
-2.8756e-005
-2.87451e-005
-3.00871e-005
-3.00729e-005
-3.00516e-005
-3.00319e-005
-3.00134e-005
-2.99952e-005
-2.99772e-005
-2.99594e-005
-2.99417e-005
-2.99241e-005
-2.99068e-005
-2.98899e-005
-2.9874e-005
-2.98623e-005
-3.12065e-005
-3.11917e-005
-3.11694e-005
-3.11488e-005
-3.11295e-005
-3.11105e-005
-3.10918e-005
-3.10732e-005
-3.10547e-005
-3.10364e-005
-3.10184e-005
-3.10006e-005
-3.09838e-005
-3.09719e-005
-3.23175e-005
-3.23019e-005
-3.22786e-005
-3.22571e-005
-3.22369e-005
-3.22171e-005
-3.21976e-005
-3.21782e-005
-3.2159e-005
-3.214e-005
-3.21212e-005
-3.21027e-005
-3.2085e-005
-3.20724e-005
-3.34188e-005
-3.34025e-005
-3.33782e-005
-3.33557e-005
-3.33347e-005
-3.3314e-005
-3.32937e-005
-3.32735e-005
-3.32535e-005
-3.32337e-005
-3.32142e-005
-3.31949e-005
-3.31763e-005
-3.31629e-005
-3.45095e-005
-3.44925e-005
-3.44671e-005
-3.44437e-005
-3.44217e-005
-3.44002e-005
-3.43789e-005
-3.43579e-005
-3.43372e-005
-3.43166e-005
-3.42963e-005
-3.42761e-005
-3.42564e-005
-3.42421e-005
-3.55888e-005
-3.55709e-005
-3.55445e-005
-3.552e-005
-3.54971e-005
-3.54746e-005
-3.54524e-005
-3.54306e-005
-3.54089e-005
-3.53874e-005
-3.53663e-005
-3.53451e-005
-3.53243e-005
-3.5309e-005
-3.66559e-005
-3.66371e-005
-3.66095e-005
-3.65839e-005
-3.656e-005
-3.65365e-005
-3.65133e-005
-3.64904e-005
-3.64678e-005
-3.64454e-005
-3.64232e-005
-3.64011e-005
-3.6379e-005
-3.63624e-005
-3.771e-005
-3.76903e-005
-3.76613e-005
-3.76345e-005
-3.76095e-005
-3.75848e-005
-3.75605e-005
-3.75365e-005
-3.75127e-005
-3.74893e-005
-3.7466e-005
-3.74426e-005
-3.74192e-005
-3.74016e-005
-3.87506e-005
-3.87298e-005
-3.86994e-005
-3.86713e-005
-3.86449e-005
-3.8619e-005
-3.85934e-005
-3.85681e-005
-3.85431e-005
-3.85183e-005
-3.84938e-005
-3.84692e-005
-3.84444e-005
-3.84257e-005
-3.97773e-005
-3.97553e-005
-3.97233e-005
-3.96937e-005
-3.96659e-005
-3.96385e-005
-3.96115e-005
-3.95847e-005
-3.95583e-005
-3.95321e-005
-3.95062e-005
-3.94801e-005
-3.9454e-005
-3.94344e-005
-4.07903e-005
-4.07669e-005
-4.07331e-005
-4.07018e-005
-4.06724e-005
-4.06434e-005
-4.06147e-005
-4.05863e-005
-4.05583e-005
-4.05305e-005
-4.05029e-005
-4.04753e-005
-4.04478e-005
-4.04276e-005
-4.17902e-005
-4.17653e-005
-4.17294e-005
-4.16962e-005
-4.1665e-005
-4.16341e-005
-4.16035e-005
-4.15733e-005
-4.15434e-005
-4.15137e-005
-4.14843e-005
-4.14548e-005
-4.1426e-005
-4.14052e-005
-4.27781e-005
-4.27515e-005
-4.27133e-005
-4.2678e-005
-4.26447e-005
-4.26117e-005
-4.2579e-005
-4.25466e-005
-4.25145e-005
-4.24826e-005
-4.2451e-005
-4.24196e-005
-4.23892e-005
-4.2368e-005
-4.37552e-005
-4.37266e-005
-4.36859e-005
-4.36482e-005
-4.36126e-005
-4.35772e-005
-4.35421e-005
-4.35073e-005
-4.34727e-005
-4.34383e-005
-4.34042e-005
-4.33704e-005
-4.33383e-005
-4.33167e-005
-4.47231e-005
-4.46923e-005
-4.46487e-005
-4.46084e-005
-4.45702e-005
-4.45321e-005
-4.44943e-005
-4.44567e-005
-4.44192e-005
-4.43819e-005
-4.43449e-005
-4.43084e-005
-4.42745e-005
-4.42524e-005
-4.56839e-005
-4.56506e-005
-4.56037e-005
-4.55603e-005
-4.55192e-005
-4.54781e-005
-4.54372e-005
-4.53964e-005
-4.53557e-005
-4.53151e-005
-4.52747e-005
-4.52352e-005
-4.51992e-005
-4.51767e-005
-4.664e-005
-4.66038e-005
-4.65533e-005
-4.65065e-005
-4.64621e-005
-4.64175e-005
-4.6373e-005
-4.63287e-005
-4.62843e-005
-4.62399e-005
-4.61958e-005
-4.61528e-005
-4.61146e-005
-4.60917e-005
-4.75942e-005
-4.75548e-005
-4.75002e-005
-4.74495e-005
-4.74014e-005
-4.73529e-005
-4.73045e-005
-4.7256e-005
-4.72075e-005
-4.71588e-005
-4.71104e-005
-4.70636e-005
-4.70228e-005
-4.69995e-005
-4.85494e-005
-4.85063e-005
-4.8447e-005
-4.83922e-005
-4.83399e-005
-4.82871e-005
-4.82342e-005
-4.81811e-005
-4.81279e-005
-4.80743e-005
-4.80212e-005
-4.79699e-005
-4.79263e-005
-4.79026e-005
-4.95093e-005
-4.94618e-005
-4.93973e-005
-4.93376e-005
-4.92806e-005
-4.9223e-005
-4.9165e-005
-4.91068e-005
-4.90482e-005
-4.89892e-005
-4.89307e-005
-4.88745e-005
-4.88277e-005
-4.88037e-005
-5.04776e-005
-5.04252e-005
-5.03547e-005
-5.02895e-005
-5.02272e-005
-5.01639e-005
-5.01002e-005
-5.00362e-005
-4.99716e-005
-4.99065e-005
-4.98418e-005
-4.97801e-005
-4.97298e-005
-4.97056e-005
-5.14583e-005
-5.14003e-005
-5.13231e-005
-5.12516e-005
-5.11833e-005
-5.11137e-005
-5.10435e-005
-5.09728e-005
-5.09014e-005
-5.08292e-005
-5.07576e-005
-5.06896e-005
-5.06355e-005
-5.06113e-005
-5.24557e-005
-5.23912e-005
-5.23062e-005
-5.22278e-005
-5.21527e-005
-5.2076e-005
-5.19985e-005
-5.19204e-005
-5.18412e-005
-5.17612e-005
-5.16816e-005
-5.16064e-005
-5.1548e-005
-5.15239e-005
-5.34745e-005
-5.34025e-005
-5.33087e-005
-5.32223e-005
-5.31395e-005
-5.30548e-005
-5.29691e-005
-5.28825e-005
-5.27948e-005
-5.27057e-005
-5.26172e-005
-5.25338e-005
-5.24707e-005
-5.24471e-005
-5.45194e-005
-5.44388e-005
-5.4335e-005
-5.42396e-005
-5.41481e-005
-5.40542e-005
-5.39592e-005
-5.38632e-005
-5.37656e-005
-5.36665e-005
-5.35679e-005
-5.34754e-005
-5.34071e-005
-5.33844e-005
-5.55951e-005
-5.55048e-005
-5.53896e-005
-5.5284e-005
-5.51827e-005
-5.50785e-005
-5.4973e-005
-5.48663e-005
-5.47578e-005
-5.46474e-005
-5.45374e-005
-5.44347e-005
-5.43608e-005
-5.43395e-005
-5.67067e-005
-5.66052e-005
-5.64771e-005
-5.636e-005
-5.62478e-005
-5.61322e-005
-5.6015e-005
-5.58964e-005
-5.57756e-005
-5.56525e-005
-5.55298e-005
-5.54156e-005
-5.53355e-005
-5.53162e-005
-5.78594e-005
-5.77452e-005
-5.76025e-005
-5.74724e-005
-5.7348e-005
-5.72195e-005
-5.70893e-005
-5.69575e-005
-5.6823e-005
-5.66857e-005
-5.65488e-005
-5.64218e-005
-5.63349e-005
-5.63183e-005
-5.90581e-005
-5.89296e-005
-5.87703e-005
-5.86258e-005
-5.84876e-005
-5.83447e-005
-5.81999e-005
-5.80533e-005
-5.79037e-005
-5.77507e-005
-5.75978e-005
-5.74567e-005
-5.73625e-005
-5.73492e-005
-6.03074e-005
-6.01626e-005
-5.99849e-005
-5.98241e-005
-5.96707e-005
-5.95117e-005
-5.93508e-005
-5.91878e-005
-5.90213e-005
-5.88508e-005
-5.86804e-005
-5.85235e-005
-5.84214e-005
-5.84123e-005
-6.16114e-005
-6.14483e-005
-6.12498e-005
-6.10712e-005
-6.09008e-005
-6.07242e-005
-6.05454e-005
-6.03643e-005
-6.01791e-005
-5.99892e-005
-5.97993e-005
-5.9625e-005
-5.95144e-005
-5.95103e-005
-6.29743e-005
-6.27906e-005
-6.25691e-005
-6.23704e-005
-6.21814e-005
-6.19854e-005
-6.1787e-005
-6.15861e-005
-6.13804e-005
-6.11691e-005
-6.09577e-005
-6.07642e-005
-6.06445e-005
-6.06465e-005
-6.43991e-005
-6.41925e-005
-6.39453e-005
-6.37245e-005
-6.35149e-005
-6.32974e-005
-6.30776e-005
-6.28548e-005
-6.26267e-005
-6.2392e-005
-6.21569e-005
-6.19425e-005
-6.18128e-005
-6.1822e-005
-6.58882e-005
-6.56563e-005
-6.53808e-005
-6.51357e-005
-6.49035e-005
-6.46625e-005
-6.44191e-005
-6.41726e-005
-6.392e-005
-6.36599e-005
-6.3399e-005
-6.31618e-005
-6.30217e-005
-6.30395e-005
-6.74429e-005
-6.7183e-005
-6.68764e-005
-6.66048e-005
-6.63481e-005
-6.60815e-005
-6.58126e-005
-6.55404e-005
-6.52613e-005
-6.49735e-005
-6.46847e-005
-6.44228e-005
-6.42718e-005
-6.42996e-005
-6.90637e-005
-6.87729e-005
-6.84322e-005
-6.81319e-005
-6.78486e-005
-6.75546e-005
-6.72582e-005
-6.69583e-005
-6.66506e-005
-6.6333e-005
-6.60142e-005
-6.57258e-005
-6.55634e-005
-6.56028e-005
-7.07506e-005
-7.0426e-005
-7.00481e-005
-6.97164e-005
-6.94045e-005
-6.90809e-005
-6.8755e-005
-6.84255e-005
-6.80873e-005
-6.77379e-005
-6.73869e-005
-6.70703e-005
-6.68962e-005
-6.69491e-005
-7.25019e-005
-7.21409e-005
-7.17229e-005
-7.13574e-005
-7.10145e-005
-7.06589e-005
-7.03015e-005
-6.99404e-005
-6.95698e-005
-6.91866e-005
-6.88016e-005
-6.84552e-005
-6.82693e-005
-6.83376e-005
-7.43139e-005
-7.39137e-005
-7.34527e-005
-7.30513e-005
-7.26755e-005
-7.2286e-005
-7.18951e-005
-7.15005e-005
-7.10957e-005
-7.06769e-005
-7.0256e-005
-6.98784e-005
-6.96806e-005
-6.97664e-005
-7.61817e-005
-7.57393e-005
-7.52324e-005
-7.4793e-005
-7.43828e-005
-7.39577e-005
-7.35316e-005
-7.3102e-005
-7.26613e-005
-7.22052e-005
-7.17467e-005
-7.13366e-005
-7.11272e-005
-7.12326e-005
-7.80998e-005
-7.76125e-005
-7.70568e-005
-7.6577e-005
-7.61305e-005
-7.56682e-005
-7.52055e-005
-7.47395e-005
-7.42616e-005
-7.37667e-005
-7.32693e-005
-7.28256e-005
-7.26048e-005
-7.27321e-005
-8.00614e-005
-7.95267e-005
-7.89196e-005
-7.83973e-005
-7.79126e-005
-7.74112e-005
-7.69103e-005
-7.64065e-005
-7.58902e-005
-7.53556e-005
-7.48181e-005
-7.43401e-005
-7.41085e-005
-7.42599e-005
-8.20564e-005
-8.14723e-005
-8.08118e-005
-8.02455e-005
-7.97211e-005
-7.91791e-005
-7.86386e-005
-7.80958e-005
-7.754e-005
-7.69646e-005
-7.63863e-005
-7.58735e-005
-7.56318e-005
-7.58095e-005
-8.40728e-005
-8.34372e-005
-8.27214e-005
-8.21099e-005
-8.15451e-005
-8.09618e-005
-8.0381e-005
-7.97986e-005
-7.92027e-005
-7.85858e-005
-7.79662e-005
-7.74184e-005
-7.71675e-005
-7.73737e-005
-8.60979e-005
-8.54092e-005
-8.4636e-005
-8.39782e-005
-8.33726e-005
-8.27475e-005
-8.21262e-005
-8.1504e-005
-8.0868e-005
-8.02096e-005
-7.95485e-005
-7.89659e-005
-7.87069e-005
-7.89436e-005
-8.8118e-005
-8.73752e-005
-8.65439e-005
-8.58388e-005
-8.51913e-005
-8.4524e-005
-8.3862e-005
-8.32001e-005
-8.25242e-005
-8.18248e-005
-8.11227e-005
-8.05059e-005
-8.02402e-005
-8.05093e-005
-9.01164e-005
-8.93193e-005
-8.84297e-005
-8.76773e-005
-8.6988e-005
-8.62782e-005
-8.55755e-005
-8.48742e-005
-8.41589e-005
-8.34192e-005
-8.2677e-005
-8.20273e-005
-8.17565e-005
-8.20596e-005
-9.20738e-005
-9.12224e-005
-9.0275e-005
-8.94762e-005
-8.8746e-005
-8.79948e-005
-8.72523e-005
-8.65126e-005
-8.5759e-005
-8.49802e-005
-8.41994e-005
-8.35183e-005
-8.32442e-005
-8.35827e-005
-9.39715e-005
-9.30664e-005
-9.20616e-005
-9.12174e-005
-9.04477e-005
-8.96566e-005
-8.88762e-005
-8.80999e-005
-8.73099e-005
-8.64939e-005
-8.56765e-005
-8.49661e-005
-8.46907e-005
-8.50653e-005
-9.57907e-005
-9.48336e-005
-9.37733e-005
-9.28846e-005
-9.20767e-005
-9.12473e-005
-9.04306e-005
-8.96198e-005
-8.87959e-005
-8.79454e-005
-8.70941e-005
-8.63572e-005
-8.60826e-005
-8.64938e-005
-9.75117e-005
-9.65054e-005
-9.53925e-005
-9.44619e-005
-9.36174e-005
-9.27515e-005
-9.19005e-005
-9.10574e-005
-9.0202e-005
-8.93201e-005
-8.84382e-005
-8.76777e-005
-8.74061e-005
-8.7854e-005
-9.91135e-005
-9.80614e-005
-9.68997e-005
-9.59305e-005
-9.50527e-005
-9.41534e-005
-9.32711e-005
-9.23986e-005
-9.15147e-005
-9.06044e-005
-8.96954e-005
-8.8915e-005
-8.86487e-005
-8.91327e-005
-0.000100578
-9.94837e-005
-9.82775e-005
-9.72736e-005
-9.63666e-005
-9.5438e-005
-9.45283e-005
-9.36301e-005
-9.27216e-005
-9.17868e-005
-9.08547e-005
-9.00582e-005
-8.97996e-005
-9.03188e-005
-0.000101893
-0.000100762
-9.95158e-005
-9.84812e-005
-9.75482e-005
-9.65942e-005
-9.56612e-005
-9.47418e-005
-9.38131e-005
-9.28588e-005
-9.19083e-005
-9.11001e-005
-9.08516e-005
-9.14046e-005
-0.000103046
-0.000101885
-0.000100606
-9.9546e-005
-9.85913e-005
-9.76159e-005
-9.66638e-005
-9.57274e-005
-9.47836e-005
-9.38152e-005
-9.28521e-005
-9.20374e-005
-9.18019e-005
-9.23868e-005
-0.000104024
-0.000102839
-0.000101536
-0.000100457
-9.94867e-005
-9.84961e-005
-9.75306e-005
-9.6583e-005
-9.56299e-005
-9.46537e-005
-9.36849e-005
-9.28701e-005
-9.2651e-005
-9.32657e-005
-0.000104815
-0.000103615
-0.000102295
-0.000101205
-0.000100226
-9.92271e-005
-9.82554e-005
-9.73037e-005
-9.63484e-005
-9.53721e-005
-9.44054e-005
-9.35978e-005
-9.33989e-005
-9.4041e-005
-0.000105415
-0.000104208
-0.000102881
-0.000101785
-0.000100805
-9.98054e-005
-9.88347e-005
-9.78861e-005
-9.69362e-005
-9.59677e-005
-9.50111e-005
-9.42179e-005
-9.40423e-005
-9.47088e-005
-0.000105823
-0.000104618
-0.000103294
-0.000102202
-0.000101225
-0.000100232
-9.92688e-005
-9.83299e-005
-9.73922e-005
-9.64383e-005
-9.54986e-005
-9.47254e-005
-9.45749e-005
-9.52611e-005
-0.000106036
-0.000104844
-0.000103533
-0.000102453
-0.000101487
-0.000100506
-9.95561e-005
-9.86329e-005
-9.77134e-005
-9.67804e-005
-9.58638e-005
-9.51155e-005
-9.49904e-005
-9.56901e-005
-0.000106048
-0.00010488
-0.000103595
-0.000102535
-0.000101589
-0.000100627
-9.9697e-005
-9.87948e-005
-9.78988e-005
-9.69921e-005
-9.61042e-005
-9.53853e-005
-9.52856e-005
-9.59927e-005
-0.000105861
-0.000104727
-0.000103476
-0.000102447
-0.000101529
-0.000100596
-9.96938e-005
-9.8819e-005
-9.79518e-005
-9.70763e-005
-9.62219e-005
-9.55365e-005
-9.54617e-005
-9.61695e-005
-0.000105488
-0.000104398
-0.000103194
-0.000102202
-0.000101317
-0.000100419
-9.95507e-005
-9.87099e-005
-9.78774e-005
-9.70386e-005
-9.62228e-005
-9.5574e-005
-9.55223e-005
-9.62227e-005
-0.000104942
-0.000103909
-0.000102763
-0.000101815
-0.000100969
-0.000100109
-9.92791e-005
-9.84762e-005
-9.76831e-005
-9.68864e-005
-9.61139e-005
-9.55049e-005
-9.54738e-005
-9.61582e-005
-0.000104232
-0.000103266
-0.000102191
-0.0001013
-0.0001005
-9.96856e-005
-9.88983e-005
-9.81365e-005
-9.73853e-005
-9.66329e-005
-9.59065e-005
-9.53393e-005
-9.53254e-005
-9.59843e-005
-0.000103377
-0.000102487
-0.000101494
-0.000100668
-9.99245e-005
-9.91645e-005
-9.84271e-005
-9.77116e-005
-9.70053e-005
-9.62989e-005
-9.56186e-005
-9.5091e-005
-9.50873e-005
-9.57094e-005
-0.000102408
-0.000101603
-0.000100699
-9.99436e-005
-9.92609e-005
-9.85618e-005
-9.78809e-005
-9.72176e-005
-9.65609e-005
-9.59033e-005
-9.52697e-005
-9.47791e-005
-9.47765e-005
-9.53482e-005
-0.000101367
-0.000100658
-9.98551e-005
-9.91748e-005
-9.85538e-005
-9.79158e-005
-9.72914e-005
-9.66805e-005
-9.60739e-005
-9.54655e-005
-9.48791e-005
-9.44248e-005
-9.44179e-005
-9.49292e-005
-0.000100288
-9.96813e-005
-9.89877e-005
-9.83895e-005
-9.78346e-005
-9.72599e-005
-9.66922e-005
-9.61323e-005
-9.55738e-005
-9.50131e-005
-9.44734e-005
-9.40554e-005
-9.40406e-005
-9.44828e-005
-9.92225e-005
-9.87201e-005
-9.8137e-005
-9.76226e-005
-9.71361e-005
-9.66257e-005
-9.61136e-005
-9.56022e-005
-9.50883e-005
-9.4572e-005
-9.40765e-005
-9.36924e-005
-9.36636e-005
-9.40269e-005
-9.82531e-005
-9.78553e-005
-9.73792e-005
-9.69411e-005
-9.65142e-005
-9.606e-005
-9.55952e-005
-9.51233e-005
-9.46451e-005
-9.41654e-005
-9.37088e-005
-9.33555e-005
-9.33097e-005
-9.35908e-005
-9.74665e-005
-9.71655e-005
-9.67844e-005
-9.64088e-005
-9.6026e-005
-9.56117e-005
-9.51788e-005
-9.47319e-005
-9.42752e-005
-9.38182e-005
-9.33871e-005
-9.30536e-005
-9.29846e-005
-9.31849e-005
-9.69692e-005
-9.67399e-005
-9.64105e-005
-9.60509e-005
-9.56641e-005
-9.52437e-005
-9.47997e-005
-9.43423e-005
-9.38825e-005
-9.34352e-005
-9.30287e-005
-9.27277e-005
-9.26695e-005
-9.28277e-005
-5.29387e-007
-5.29993e-007
-5.29961e-007
-5.29979e-007
-5.29964e-007
-5.2988e-007
-5.29757e-007
-5.29613e-007
-5.29459e-007
-5.293e-007
-5.29121e-007
-5.28892e-007
-5.28567e-007
-5.2808e-007
-1.61456e-006
-1.61464e-006
-1.61386e-006
-1.61317e-006
-1.61247e-006
-1.61176e-006
-1.61104e-006
-1.61035e-006
-1.60969e-006
-1.60907e-006
-1.60845e-006
-1.60779e-006
-1.60702e-006
-1.60621e-006
-2.73055e-006
-2.72953e-006
-2.72795e-006
-2.72645e-006
-2.72501e-006
-2.72358e-006
-2.7222e-006
-2.72088e-006
-2.71962e-006
-2.71842e-006
-2.71723e-006
-2.71597e-006
-2.71455e-006
-2.71323e-006
-3.84728e-006
-3.84574e-006
-3.84343e-006
-3.84122e-006
-3.83906e-006
-3.83688e-006
-3.83472e-006
-3.83264e-006
-3.83066e-006
-3.82878e-006
-3.82695e-006
-3.82505e-006
-3.82294e-006
-3.82107e-006
-4.96528e-006
-4.96325e-006
-4.96019e-006
-4.95727e-006
-4.95445e-006
-4.95163e-006
-4.94883e-006
-4.94611e-006
-4.9435e-006
-4.94102e-006
-4.9386e-006
-4.93612e-006
-4.93339e-006
-4.93102e-006
-6.08547e-006
-6.08293e-006
-6.07911e-006
-6.07545e-006
-6.07191e-006
-6.0684e-006
-6.06496e-006
-6.06163e-006
-6.05845e-006
-6.05541e-006
-6.05243e-006
-6.04937e-006
-6.046e-006
-6.04307e-006
-7.20925e-006
-7.20629e-006
-7.20182e-006
-7.19751e-006
-7.19331e-006
-7.18913e-006
-7.18502e-006
-7.18105e-006
-7.17724e-006
-7.17359e-006
-7.17e-006
-7.16629e-006
-7.16216e-006
-7.15858e-006
-8.33619e-006
-8.33279e-006
-8.32767e-006
-8.32272e-006
-8.31791e-006
-8.31308e-006
-8.30831e-006
-8.30368e-006
-8.29923e-006
-8.29495e-006
-8.29072e-006
-8.28634e-006
-8.28147e-006
-8.27728e-006
-9.46618e-006
-9.46231e-006
-9.4565e-006
-9.45091e-006
-9.44547e-006
-9.44003e-006
-9.43465e-006
-9.42942e-006
-9.42438e-006
-9.41951e-006
-9.41471e-006
-9.40974e-006
-9.40421e-006
-9.39943e-006
-1.05994e-005
-1.05951e-005
-1.05886e-005
-1.05824e-005
-1.05763e-005
-1.05703e-005
-1.05643e-005
-1.05584e-005
-1.05528e-005
-1.05473e-005
-1.05419e-005
-1.05363e-005
-1.053e-005
-1.05246e-005
-1.1736e-005
-1.17312e-005
-1.17241e-005
-1.17172e-005
-1.17106e-005
-1.17039e-005
-1.16974e-005
-1.16909e-005
-1.16847e-005
-1.16786e-005
-1.16725e-005
-1.16661e-005
-1.1659e-005
-1.16529e-005
-1.28757e-005
-1.28705e-005
-1.28627e-005
-1.28552e-005
-1.2848e-005
-1.28408e-005
-1.28336e-005
-1.28266e-005
-1.28198e-005
-1.28131e-005
-1.28064e-005
-1.27995e-005
-1.27917e-005
-1.27851e-005
-1.4018e-005
-1.40124e-005
-1.40039e-005
-1.39959e-005
-1.3988e-005
-1.39802e-005
-1.39725e-005
-1.39649e-005
-1.39575e-005
-1.39503e-005
-1.39431e-005
-1.39357e-005
-1.39274e-005
-1.39202e-005
-1.51626e-005
-1.51565e-005
-1.51474e-005
-1.51387e-005
-1.51303e-005
-1.51219e-005
-1.51136e-005
-1.51054e-005
-1.50974e-005
-1.50896e-005
-1.50818e-005
-1.50737e-005
-1.50648e-005
-1.5057e-005
-1.63093e-005
-1.63028e-005
-1.6293e-005
-1.62837e-005
-1.62746e-005
-1.62657e-005
-1.62567e-005
-1.62479e-005
-1.62393e-005
-1.62308e-005
-1.62223e-005
-1.62135e-005
-1.62038e-005
-1.61955e-005
-1.74578e-005
-1.74508e-005
-1.74403e-005
-1.74303e-005
-1.74207e-005
-1.74111e-005
-1.74016e-005
-1.73921e-005
-1.73829e-005
-1.73737e-005
-1.73646e-005
-1.73552e-005
-1.7345e-005
-1.73362e-005
-1.86073e-005
-1.85998e-005
-1.85887e-005
-1.85781e-005
-1.85678e-005
-1.85576e-005
-1.85475e-005
-1.85375e-005
-1.85277e-005
-1.8518e-005
-1.85084e-005
-1.84985e-005
-1.84879e-005
-1.84788e-005
-1.97572e-005
-1.97492e-005
-1.97374e-005
-1.97261e-005
-1.97153e-005
-1.97045e-005
-1.96938e-005
-1.96833e-005
-1.9673e-005
-1.96628e-005
-1.96527e-005
-1.96423e-005
-1.96313e-005
-1.96218e-005
-2.09069e-005
-2.08985e-005
-2.08859e-005
-2.0874e-005
-2.08625e-005
-2.08512e-005
-2.08399e-005
-2.08288e-005
-2.08178e-005
-2.08071e-005
-2.07964e-005
-2.07855e-005
-2.0774e-005
-2.07643e-005
-2.2056e-005
-2.20471e-005
-2.20337e-005
-2.2021e-005
-2.20089e-005
-2.19969e-005
-2.19851e-005
-2.19733e-005
-2.19618e-005
-2.19504e-005
-2.19391e-005
-2.19277e-005
-2.19158e-005
-2.19057e-005
-2.32039e-005
-2.31944e-005
-2.31802e-005
-2.31668e-005
-2.3154e-005
-2.31414e-005
-2.31289e-005
-2.31165e-005
-2.31043e-005
-2.30923e-005
-2.30805e-005
-2.30686e-005
-2.30563e-005
-2.3046e-005
-2.43499e-005
-2.43399e-005
-2.43249e-005
-2.43108e-005
-2.42973e-005
-2.4284e-005
-2.42709e-005
-2.42579e-005
-2.42451e-005
-2.42326e-005
-2.42202e-005
-2.42079e-005
-2.41952e-005
-2.41847e-005
-2.54933e-005
-2.54828e-005
-2.5467e-005
-2.54522e-005
-2.54381e-005
-2.54242e-005
-2.54104e-005
-2.53969e-005
-2.53835e-005
-2.53704e-005
-2.53575e-005
-2.53447e-005
-2.53316e-005
-2.53208e-005
-2.66334e-005
-2.66223e-005
-2.66057e-005
-2.65902e-005
-2.65755e-005
-2.6561e-005
-2.65466e-005
-2.65325e-005
-2.65186e-005
-2.65048e-005
-2.64914e-005
-2.64781e-005
-2.64645e-005
-2.64534e-005
-2.77692e-005
-2.77576e-005
-2.77402e-005
-2.7724e-005
-2.77086e-005
-2.76934e-005
-2.76785e-005
-2.76638e-005
-2.76493e-005
-2.7635e-005
-2.7621e-005
-2.76071e-005
-2.7593e-005
-2.75815e-005
-2.88997e-005
-2.88875e-005
-2.88694e-005
-2.88524e-005
-2.88363e-005
-2.88205e-005
-2.8805e-005
-2.87896e-005
-2.87745e-005
-2.87596e-005
-2.8745e-005
-2.87305e-005
-2.87158e-005
-2.87038e-005
-3.00237e-005
-3.00109e-005
-2.9992e-005
-2.99742e-005
-2.99575e-005
-2.99411e-005
-2.99248e-005
-2.99089e-005
-2.98931e-005
-2.98776e-005
-2.98623e-005
-2.98471e-005
-2.98317e-005
-2.9819e-005
-3.11401e-005
-3.11268e-005
-3.11069e-005
-3.10884e-005
-3.1071e-005
-3.10538e-005
-3.10369e-005
-3.10202e-005
-3.10038e-005
-3.09876e-005
-3.09716e-005
-3.09557e-005
-3.09394e-005
-3.0926e-005
-3.22478e-005
-3.22339e-005
-3.22132e-005
-3.21938e-005
-3.21756e-005
-3.21577e-005
-3.21401e-005
-3.21227e-005
-3.21055e-005
-3.20886e-005
-3.20719e-005
-3.20552e-005
-3.2038e-005
-3.20237e-005
-3.33458e-005
-3.33312e-005
-3.33095e-005
-3.32894e-005
-3.32704e-005
-3.32517e-005
-3.32333e-005
-3.32152e-005
-3.31973e-005
-3.31796e-005
-3.31622e-005
-3.31447e-005
-3.31266e-005
-3.31112e-005
-3.4433e-005
-3.44177e-005
-3.43951e-005
-3.43741e-005
-3.43542e-005
-3.43347e-005
-3.43155e-005
-3.42966e-005
-3.4278e-005
-3.42595e-005
-3.42413e-005
-3.42231e-005
-3.42031e-005
-3.41873e-005
-3.55086e-005
-3.54925e-005
-3.54689e-005
-3.5447e-005
-3.54262e-005
-3.54059e-005
-3.53858e-005
-3.5366e-005
-3.53465e-005
-3.53272e-005
-3.5308e-005
-3.52886e-005
-3.52681e-005
-3.5251e-005
-3.65716e-005
-3.65547e-005
-3.65301e-005
-3.65072e-005
-3.64855e-005
-3.64642e-005
-3.64431e-005
-3.64224e-005
-3.64019e-005
-3.63817e-005
-3.63616e-005
-3.63411e-005
-3.63193e-005
-3.6301e-005
-3.76214e-005
-3.76036e-005
-3.75779e-005
-3.75538e-005
-3.75311e-005
-3.75087e-005
-3.74866e-005
-3.74648e-005
-3.74433e-005
-3.7422e-005
-3.74008e-005
-3.73792e-005
-3.73562e-005
-3.73368e-005
-3.86573e-005
-3.86386e-005
-3.86115e-005
-3.85862e-005
-3.85623e-005
-3.85388e-005
-3.85155e-005
-3.84925e-005
-3.84698e-005
-3.84474e-005
-3.84251e-005
-3.84024e-005
-3.83781e-005
-3.83577e-005
-3.96791e-005
-3.96592e-005
-3.96307e-005
-3.9604e-005
-3.95788e-005
-3.95539e-005
-3.95293e-005
-3.9505e-005
-3.94811e-005
-3.94575e-005
-3.94341e-005
-3.94102e-005
-3.93848e-005
-3.93634e-005
-4.06866e-005
-4.06655e-005
-4.06353e-005
-4.06071e-005
-4.05804e-005
-4.0554e-005
-4.0528e-005
-4.05023e-005
-4.0477e-005
-4.04521e-005
-4.04275e-005
-4.04025e-005
-4.0376e-005
-4.03539e-005
-4.16806e-005
-4.1658e-005
-4.1626e-005
-4.1596e-005
-4.15676e-005
-4.15396e-005
-4.15119e-005
-4.14846e-005
-4.14578e-005
-4.14315e-005
-4.14055e-005
-4.13794e-005
-4.13519e-005
-4.13292e-005
-4.26617e-005
-4.26376e-005
-4.26034e-005
-4.25715e-005
-4.25413e-005
-4.25113e-005
-4.24817e-005
-4.24527e-005
-4.24242e-005
-4.23963e-005
-4.23689e-005
-4.23416e-005
-4.23132e-005
-4.22899e-005
-4.36312e-005
-4.36053e-005
-4.35687e-005
-4.35347e-005
-4.35023e-005
-4.34702e-005
-4.34385e-005
-4.34074e-005
-4.33771e-005
-4.33474e-005
-4.33185e-005
-4.32898e-005
-4.32606e-005
-4.32368e-005
-4.45906e-005
-4.45625e-005
-4.45233e-005
-4.44868e-005
-4.4452e-005
-4.44175e-005
-4.43834e-005
-4.43501e-005
-4.43175e-005
-4.42858e-005
-4.42552e-005
-4.42252e-005
-4.41951e-005
-4.4171e-005
-4.55416e-005
-4.55111e-005
-4.54689e-005
-4.54296e-005
-4.5392e-005
-4.53547e-005
-4.5318e-005
-4.5282e-005
-4.52471e-005
-4.52132e-005
-4.51807e-005
-4.51493e-005
-4.51183e-005
-4.5094e-005
-4.64864e-005
-4.64532e-005
-4.64076e-005
-4.63651e-005
-4.63245e-005
-4.6284e-005
-4.62442e-005
-4.62053e-005
-4.61676e-005
-4.61313e-005
-4.60967e-005
-4.60639e-005
-4.60322e-005
-4.60079e-005
-4.74276e-005
-4.73913e-005
-4.73417e-005
-4.72957e-005
-4.72516e-005
-4.72077e-005
-4.71644e-005
-4.71223e-005
-4.70815e-005
-4.70425e-005
-4.70056e-005
-4.69712e-005
-4.6939e-005
-4.69147e-005
-4.8368e-005
-4.83281e-005
-4.82741e-005
-4.82241e-005
-4.81761e-005
-4.81282e-005
-4.80811e-005
-4.80353e-005
-4.79912e-005
-4.79491e-005
-4.79098e-005
-4.78738e-005
-4.78411e-005
-4.78171e-005
-4.93108e-005
-4.92667e-005
-4.92078e-005
-4.91533e-005
-4.91009e-005
-4.90485e-005
-4.89971e-005
-4.89471e-005
-4.88992e-005
-4.88538e-005
-4.88119e-005
-4.87743e-005
-4.87413e-005
-4.87179e-005
-5.02594e-005
-5.02106e-005
-5.01461e-005
-5.00864e-005
-5.0029e-005
-4.99716e-005
-4.99152e-005
-4.98606e-005
-4.98085e-005
-4.97594e-005
-4.97147e-005
-4.96755e-005
-4.96425e-005
-4.96201e-005
-5.12175e-005
-5.11632e-005
-5.10923e-005
-5.10269e-005
-5.09638e-005
-5.09007e-005
-5.08388e-005
-5.0779e-005
-5.07221e-005
-5.0669e-005
-5.06213e-005
-5.05804e-005
-5.05477e-005
-5.05266e-005
-5.21892e-005
-5.21286e-005
-5.20504e-005
-5.19784e-005
-5.1909e-005
-5.18394e-005
-5.17712e-005
-5.17057e-005
-5.16435e-005
-5.1586e-005
-5.15349e-005
-5.14924e-005
-5.14601e-005
-5.14409e-005
-5.31787e-005
-5.31109e-005
-5.30244e-005
-5.2945e-005
-5.28683e-005
-5.27914e-005
-5.27162e-005
-5.26442e-005
-5.25762e-005
-5.25138e-005
-5.24592e-005