/*--------------------------------*- C++ -*----------------------------------*\
| =========                 |                                                 |
| \\      /  F ield         | OpenFOAM: The Open Source CFD Toolbox           |
|  \\    /   O peration     | Version:  5.x                                   |
|   \\  /    A nd           | Web:      www.OpenFOAM.org                      |
|    \\/     M anipulation  |                                                 |
\*---------------------------------------------------------------------------*/
/*   Windows 32 and 64 bit porting by blueCAPE: http://www.bluecape.com.pt   *\
|  Based on Windows porting (2.0.x v4) by Symscape: http://www.symscape.com   |
\*---------------------------------------------------------------------------*/
FoamFile
{
    version     2.0;
    format      ascii;
    class       volScalarField;
    location    "0.3";
    object      p;
}
// * * * * * * * * * * * * * * * * * * * * * * * * * * * * * * * * * * * * * //

dimensions      [0 2 -2 0 0 0 0];

internalField   nonuniform List<scalar> 
141075
(
-5.06508e-007
-5.08929e-007
-5.10037e-007
-5.11244e-007
-5.12258e-007
-5.13184e-007
-5.14079e-007
-5.14962e-007
-5.15835e-007
-5.16687e-007
-5.17481e-007
-5.18162e-007
-5.18663e-007
-5.18703e-007
-1.53022e-006
-1.53296e-006
-1.53472e-006
-1.53659e-006
-1.53851e-006
-1.54051e-006
-1.54262e-006
-1.54483e-006
-1.54709e-006
-1.54935e-006
-1.55148e-006
-1.55333e-006
-1.55466e-006
-1.55511e-006
-2.56961e-006
-2.57044e-006
-2.57171e-006
-2.5734e-006
-2.57545e-006
-2.57785e-006
-2.58056e-006
-2.58351e-006
-2.58661e-006
-2.58973e-006
-2.59273e-006
-2.59538e-006
-2.59737e-006
-2.59828e-006
-3.6022e-006
-3.60328e-006
-3.60454e-006
-3.60637e-006
-3.60867e-006
-3.61148e-006
-3.61475e-006
-3.61839e-006
-3.62227e-006
-3.62626e-006
-3.63015e-006
-3.63365e-006
-3.63635e-006
-3.63769e-006
-4.62251e-006
-4.62382e-006
-4.62523e-006
-4.62735e-006
-4.63009e-006
-4.63348e-006
-4.63744e-006
-4.64189e-006
-4.64666e-006
-4.6516e-006
-4.65643e-006
-4.6608e-006
-4.66421e-006
-4.66597e-006
-5.62555e-006
-5.62713e-006
-5.62881e-006
-5.63125e-006
-5.63437e-006
-5.63825e-006
-5.64285e-006
-5.64804e-006
-5.65367e-006
-5.6595e-006
-5.66524e-006
-5.67045e-006
-5.67452e-006
-5.67666e-006
-6.60782e-006
-6.60963e-006
-6.61157e-006
-6.61443e-006
-6.61807e-006
-6.62256e-006
-6.62785e-006
-6.6338e-006
-6.64025e-006
-6.64693e-006
-6.65351e-006
-6.65949e-006
-6.66417e-006
-6.66665e-006
-7.56609e-006
-7.56809e-006
-7.57019e-006
-7.57334e-006
-7.57743e-006
-7.58249e-006
-7.58845e-006
-7.59514e-006
-7.60236e-006
-7.60985e-006
-7.6172e-006
-7.62386e-006
-7.62907e-006
-7.63184e-006
-8.49746e-006
-8.4997e-006
-8.50205e-006
-8.50549e-006
-8.50989e-006
-8.51536e-006
-8.52183e-006
-8.52912e-006
-8.53701e-006
-8.54519e-006
-8.55322e-006
-8.5605e-006
-8.56618e-006
-8.56922e-006
-9.39884e-006
-9.40125e-006
-9.4038e-006
-9.40755e-006
-9.41232e-006
-9.41823e-006
-9.42519e-006
-9.43303e-006
-9.4415e-006
-9.45029e-006
-9.45891e-006
-9.46672e-006
-9.47281e-006
-9.47607e-006
-1.02681e-005
-1.02706e-005
-1.02733e-005
-1.02773e-005
-1.02824e-005
-1.02887e-005
-1.02961e-005
-1.03044e-005
-1.03134e-005
-1.03227e-005
-1.03318e-005
-1.03401e-005
-1.03465e-005
-1.03499e-005
-1.11034e-005
-1.11061e-005
-1.11089e-005
-1.11131e-005
-1.11184e-005
-1.1125e-005
-1.11327e-005
-1.11414e-005
-1.11508e-005
-1.11605e-005
-1.117e-005
-1.11785e-005
-1.11851e-005
-1.11886e-005
-1.19032e-005
-1.1906e-005
-1.1909e-005
-1.19133e-005
-1.19188e-005
-1.19256e-005
-1.19336e-005
-1.19425e-005
-1.19522e-005
-1.19621e-005
-1.19719e-005
-1.19807e-005
-1.19874e-005
-1.19909e-005
-1.26663e-005
-1.26692e-005
-1.26723e-005
-1.26768e-005
-1.26824e-005
-1.26894e-005
-1.26975e-005
-1.27066e-005
-1.27165e-005
-1.27266e-005
-1.27365e-005
-1.27454e-005
-1.27522e-005
-1.27557e-005
-1.33923e-005
-1.33953e-005
-1.33985e-005
-1.34031e-005
-1.34088e-005
-1.34158e-005
-1.3424e-005
-1.34332e-005
-1.34431e-005
-1.34533e-005
-1.34633e-005
-1.34722e-005
-1.3479e-005
-1.34824e-005
-1.40812e-005
-1.40842e-005
-1.40875e-005
-1.40921e-005
-1.40978e-005
-1.41049e-005
-1.41131e-005
-1.41223e-005
-1.41322e-005
-1.41423e-005
-1.41522e-005
-1.41611e-005
-1.41678e-005
-1.41712e-005
-1.47333e-005
-1.47363e-005
-1.47396e-005
-1.47442e-005
-1.475e-005
-1.4757e-005
-1.47651e-005
-1.47742e-005
-1.4784e-005
-1.4794e-005
-1.48038e-005
-1.48125e-005
-1.48192e-005
-1.48224e-005
-1.53496e-005
-1.53526e-005
-1.53559e-005
-1.53604e-005
-1.53661e-005
-1.53729e-005
-1.53809e-005
-1.53898e-005
-1.53993e-005
-1.54091e-005
-1.54187e-005
-1.54273e-005
-1.54337e-005
-1.54369e-005
-1.59315e-005
-1.59344e-005
-1.59377e-005
-1.59422e-005
-1.59477e-005
-1.59543e-005
-1.5962e-005
-1.59705e-005
-1.59797e-005
-1.59892e-005
-1.59984e-005
-1.60067e-005
-1.6013e-005
-1.60161e-005
-1.6481e-005
-1.64839e-005
-1.64871e-005
-1.64914e-005
-1.64967e-005
-1.6503e-005
-1.65104e-005
-1.65185e-005
-1.65272e-005
-1.65362e-005
-1.6545e-005
-1.65529e-005
-1.6559e-005
-1.65621e-005
-1.70005e-005
-1.70033e-005
-1.70064e-005
-1.70105e-005
-1.70155e-005
-1.70215e-005
-1.70284e-005
-1.7036e-005
-1.70442e-005
-1.70526e-005
-1.70609e-005
-1.70684e-005
-1.70743e-005
-1.70772e-005
-1.74927e-005
-1.74954e-005
-1.74983e-005
-1.75022e-005
-1.75068e-005
-1.75124e-005
-1.75187e-005
-1.75258e-005
-1.75333e-005
-1.75411e-005
-1.75488e-005
-1.75558e-005
-1.75614e-005
-1.75644e-005
-1.79606e-005
-1.79631e-005
-1.79658e-005
-1.79694e-005
-1.79737e-005
-1.79787e-005
-1.79845e-005
-1.79908e-005
-1.79976e-005
-1.80047e-005
-1.80117e-005
-1.80181e-005
-1.80235e-005
-1.80265e-005
-1.84075e-005
-1.84098e-005
-1.84123e-005
-1.84156e-005
-1.84194e-005
-1.84239e-005
-1.8429e-005
-1.84346e-005
-1.84406e-005
-1.84468e-005
-1.8453e-005
-1.84588e-005
-1.84639e-005
-1.84669e-005
-1.88373e-005
-1.88394e-005
-1.88416e-005
-1.88445e-005
-1.88478e-005
-1.88517e-005
-1.8856e-005
-1.88608e-005
-1.88659e-005
-1.88712e-005
-1.88765e-005
-1.88816e-005
-1.88862e-005
-1.88893e-005
-1.92536e-005
-1.92555e-005
-1.92574e-005
-1.92599e-005
-1.92627e-005
-1.92659e-005
-1.92694e-005
-1.92733e-005
-1.92774e-005
-1.92818e-005
-1.92862e-005
-1.92905e-005
-1.92946e-005
-1.92976e-005
-1.96605e-005
-1.96621e-005
-1.96637e-005
-1.96657e-005
-1.96679e-005
-1.96704e-005
-1.96732e-005
-1.96761e-005
-1.96793e-005
-1.96825e-005
-1.9686e-005
-1.96895e-005
-1.96932e-005
-1.96961e-005
-2.00622e-005
-2.00635e-005
-2.00646e-005
-2.00662e-005
-2.00678e-005
-2.00695e-005
-2.00714e-005
-2.00733e-005
-2.00754e-005
-2.00776e-005
-2.008e-005
-2.00826e-005
-2.00857e-005
-2.00885e-005
-2.04625e-005
-2.04635e-005
-2.04643e-005
-2.04653e-005
-2.04663e-005
-2.04672e-005
-2.04681e-005
-2.0469e-005
-2.047e-005
-2.0471e-005
-2.04722e-005
-2.04737e-005
-2.04762e-005
-2.04786e-005
-2.08656e-005
-2.08663e-005
-2.08667e-005
-2.08671e-005
-2.08674e-005
-2.08675e-005
-2.08674e-005
-2.08672e-005
-2.08669e-005
-2.08667e-005
-2.08666e-005
-2.0867e-005
-2.08686e-005
-2.08707e-005
-2.12752e-005
-2.12756e-005
-2.12755e-005
-2.12753e-005
-2.12749e-005
-2.12741e-005
-2.12731e-005
-2.12717e-005
-2.12703e-005
-2.12688e-005
-2.12675e-005
-2.12667e-005
-2.12674e-005
-2.12689e-005
-2.1695e-005
-2.1695e-005
-2.16944e-005
-2.16937e-005
-2.16925e-005
-2.16909e-005
-2.16888e-005
-2.16864e-005
-2.16838e-005
-2.16811e-005
-2.16785e-005
-2.16766e-005
-2.16763e-005
-2.16772e-005
-2.21283e-005
-2.2128e-005
-2.21269e-005
-2.21255e-005
-2.21236e-005
-2.21212e-005
-2.21182e-005
-2.21147e-005
-2.21109e-005
-2.2107e-005
-2.21032e-005
-2.21001e-005
-2.20987e-005
-2.20988e-005
-2.25785e-005
-2.25777e-005
-2.25761e-005
-2.25741e-005
-2.25715e-005
-2.25682e-005
-2.25642e-005
-2.25596e-005
-2.25547e-005
-2.25495e-005
-2.25445e-005
-2.25401e-005
-2.25376e-005
-2.25367e-005
-2.30484e-005
-2.30472e-005
-2.30451e-005
-2.30424e-005
-2.3039e-005
-2.30347e-005
-2.30297e-005
-2.3024e-005
-2.30179e-005
-2.30114e-005
-2.30051e-005
-2.29995e-005
-2.29957e-005
-2.29938e-005
-2.35406e-005
-2.3539e-005
-2.35363e-005
-2.35329e-005
-2.35286e-005
-2.35234e-005
-2.35173e-005
-2.35105e-005
-2.35031e-005
-2.34954e-005
-2.34877e-005
-2.34807e-005
-2.34755e-005
-2.34724e-005
-2.40575e-005
-2.40554e-005
-2.4052e-005
-2.40478e-005
-2.40427e-005
-2.40365e-005
-2.40292e-005
-2.40212e-005
-2.40125e-005
-2.40035e-005
-2.39945e-005
-2.3986e-005
-2.39793e-005
-2.39749e-005
-2.4601e-005
-2.45984e-005
-2.45943e-005
-2.45893e-005
-2.45831e-005
-2.45758e-005
-2.45675e-005
-2.45582e-005
-2.45482e-005
-2.45377e-005
-2.45272e-005
-2.45173e-005
-2.4509e-005
-2.45033e-005
-2.51728e-005
-2.51697e-005
-2.51648e-005
-2.51588e-005
-2.51517e-005
-2.51433e-005
-2.51337e-005
-2.51231e-005
-2.51116e-005
-2.50997e-005
-2.50877e-005
-2.50761e-005
-2.50662e-005
-2.50591e-005
-2.57743e-005
-2.57707e-005
-2.57648e-005
-2.57579e-005
-2.57497e-005
-2.57401e-005
-2.57292e-005
-2.57172e-005
-2.57043e-005
-2.56908e-005
-2.56771e-005
-2.56638e-005
-2.56522e-005
-2.56436e-005
-2.64066e-005
-2.64024e-005
-2.63956e-005
-2.63876e-005
-2.63782e-005
-2.63674e-005
-2.63551e-005
-2.63416e-005
-2.63272e-005
-2.63119e-005
-2.62965e-005
-2.62814e-005
-2.6268e-005
-2.6258e-005
-2.70704e-005
-2.70655e-005
-2.70576e-005
-2.70485e-005
-2.7038e-005
-2.70258e-005
-2.70121e-005
-2.69971e-005
-2.69809e-005
-2.6964e-005
-2.69466e-005
-2.69297e-005
-2.69145e-005
-2.69029e-005
-2.77657e-005
-2.77601e-005
-2.77511e-005
-2.77408e-005
-2.7729e-005
-2.77155e-005
-2.77003e-005
-2.76837e-005
-2.76658e-005
-2.7647e-005
-2.76278e-005
-2.76088e-005
-2.75918e-005
-2.75787e-005
-2.84918e-005
-2.84856e-005
-2.84754e-005
-2.84639e-005
-2.84508e-005
-2.84359e-005
-2.84192e-005
-2.84009e-005
-2.83813e-005
-2.83606e-005
-2.83394e-005
-2.83185e-005
-2.82995e-005
-2.82849e-005
-2.92473e-005
-2.92404e-005
-2.9229e-005
-2.92162e-005
-2.92017e-005
-2.91854e-005
-2.91672e-005
-2.91472e-005
-2.91258e-005
-2.91033e-005
-2.90801e-005
-2.90571e-005
-2.90362e-005
-2.90199e-005
-3.00296e-005
-3.00219e-005
-3.00093e-005
-2.99951e-005
-2.99793e-005
-2.99615e-005
-2.99418e-005
-2.99202e-005
-2.98971e-005
-2.98726e-005
-2.98474e-005
-2.98223e-005
-2.97995e-005
-2.97814e-005
-3.08351e-005
-3.08267e-005
-3.08127e-005
-3.07972e-005
-3.078e-005
-3.07608e-005
-3.07395e-005
-3.07163e-005
-3.06914e-005
-3.0665e-005
-3.06377e-005
-3.06105e-005
-3.05856e-005
-3.05657e-005
-3.16589e-005
-3.16498e-005
-3.16344e-005
-3.16176e-005
-3.1599e-005
-3.15784e-005
-3.15556e-005
-3.15308e-005
-3.15041e-005
-3.14758e-005
-3.14464e-005
-3.1417e-005
-3.13899e-005
-3.1368e-005
-3.24952e-005
-3.24852e-005
-3.24684e-005
-3.24502e-005
-3.24302e-005
-3.24082e-005
-3.23839e-005
-3.23575e-005
-3.23291e-005
-3.22989e-005
-3.22676e-005
-3.2236e-005
-3.22067e-005
-3.21829e-005
-3.3337e-005
-3.33261e-005
-3.33078e-005
-3.32881e-005
-3.32668e-005
-3.32433e-005
-3.32176e-005
-3.31897e-005
-3.31597e-005
-3.31278e-005
-3.30945e-005
-3.30609e-005
-3.30295e-005
-3.30039e-005
-3.4177e-005
-3.41653e-005
-3.41453e-005
-3.4124e-005
-3.41013e-005
-3.40764e-005
-3.40493e-005
-3.402e-005
-3.39885e-005
-3.3955e-005
-3.392e-005
-3.38846e-005
-3.38514e-005
-3.38242e-005
-3.50085e-005
-3.49957e-005
-3.49739e-005
-3.4951e-005
-3.49267e-005
-3.49005e-005
-3.4872e-005
-3.48414e-005
-3.48085e-005
-3.47736e-005
-3.47371e-005
-3.47001e-005
-3.46652e-005
-3.46368e-005
-3.58255e-005
-3.58114e-005
-3.57876e-005
-3.57629e-005
-3.57371e-005
-3.57093e-005
-3.56795e-005
-3.56474e-005
-3.56133e-005
-3.55771e-005
-3.55393e-005
-3.55007e-005
-3.54643e-005
-3.54345e-005
-3.66231e-005
-3.66076e-005
-3.65816e-005
-3.6555e-005
-3.65273e-005
-3.64979e-005
-3.64665e-005
-3.64331e-005
-3.63975e-005
-3.636e-005
-3.63208e-005
-3.62808e-005
-3.62427e-005
-3.62115e-005
-3.73984e-005
-3.73812e-005
-3.73528e-005
-3.7324e-005
-3.72944e-005
-3.72631e-005
-3.72299e-005
-3.71947e-005
-3.71576e-005
-3.71186e-005
-3.7078e-005
-3.70364e-005
-3.69964e-005
-3.69637e-005
-3.81508e-005
-3.81316e-005
-3.81004e-005
-3.80691e-005
-3.80372e-005
-3.80037e-005
-3.79685e-005
-3.79314e-005
-3.78924e-005
-3.78516e-005
-3.78094e-005
-3.77661e-005
-3.77241e-005
-3.76897e-005
-3.88823e-005
-3.88609e-005
-3.88266e-005
-3.87925e-005
-3.8758e-005
-3.87221e-005
-3.86844e-005
-3.86451e-005
-3.8604e-005
-3.85612e-005
-3.85171e-005
-3.84719e-005
-3.84278e-005
-3.83916e-005
-3.95979e-005
-3.9574e-005
-3.95364e-005
-3.94992e-005
-3.94619e-005
-3.94232e-005
-3.93829e-005
-3.93411e-005
-3.92976e-005
-3.92526e-005
-3.92063e-005
-3.91591e-005
-3.91127e-005
-3.90748e-005
-4.03047e-005
-4.02782e-005
-4.0237e-005
-4.01965e-005
-4.01562e-005
-4.01146e-005
-4.00715e-005
-4.0027e-005
-3.9981e-005
-3.99336e-005
-3.98851e-005
-3.98357e-005
-3.97869e-005
-3.97472e-005
-4.10114e-005
-4.09819e-005
-4.09369e-005
-4.0893e-005
-4.08496e-005
-4.08049e-005
-4.07589e-005
-4.07116e-005
-4.0663e-005
-4.06131e-005
-4.05623e-005
-4.05108e-005
-4.04597e-005
-4.04184e-005
-4.17269e-005
-4.16943e-005
-4.16453e-005
-4.15978e-005
-4.1551e-005
-4.15033e-005
-4.14542e-005
-4.14041e-005
-4.13527e-005
-4.13003e-005
-4.12472e-005
-4.11935e-005
-4.11401e-005
-4.10972e-005
-4.24598e-005
-4.24241e-005
-4.23709e-005
-4.23195e-005
-4.22693e-005
-4.22182e-005
-4.2166e-005
-4.21127e-005
-4.20585e-005
-4.20033e-005
-4.19477e-005
-4.18917e-005
-4.18359e-005
-4.17915e-005
-4.32175e-005
-4.31784e-005
-4.31208e-005
-4.30654e-005
-4.30115e-005
-4.29569e-005
-4.29012e-005
-4.28446e-005
-4.27871e-005
-4.27288e-005
-4.26702e-005
-4.26115e-005
-4.25533e-005
-4.25074e-005
-4.40041e-005
-4.39616e-005
-4.38994e-005
-4.38398e-005
-4.37821e-005
-4.37237e-005
-4.36644e-005
-4.36043e-005
-4.35433e-005
-4.34817e-005
-4.34199e-005
-4.33583e-005
-4.32977e-005
-4.32507e-005
-4.48215e-005
-4.47753e-005
-4.47082e-005
-4.46442e-005
-4.45826e-005
-4.45205e-005
-4.44577e-005
-4.43943e-005
-4.43301e-005
-4.42655e-005
-4.42009e-005
-4.41368e-005
-4.40745e-005
-4.40275e-005
-4.56704e-005
-4.56201e-005
-4.55477e-005
-4.5479e-005
-4.54134e-005
-4.53478e-005
-4.52818e-005
-4.52156e-005
-4.51489e-005
-4.50822e-005
-4.50159e-005
-4.49506e-005
-4.4888e-005
-4.48419e-005
-4.65537e-005
-4.64987e-005
-4.64202e-005
-4.63464e-005
-4.62765e-005
-4.62071e-005
-4.61379e-005
-4.6069e-005
-4.60003e-005
-4.59321e-005
-4.58649e-005
-4.57993e-005
-4.57375e-005
-4.56933e-005
-4.7478e-005
-4.74178e-005
-4.73322e-005
-4.72521e-005
-4.71767e-005
-4.71024e-005
-4.70287e-005
-4.69559e-005
-4.6884e-005
-4.68131e-005
-4.67439e-005
-4.6677e-005
-4.66155e-005
-4.6573e-005
-4.84531e-005
-4.83866e-005
-4.82926e-005
-4.82045e-005
-4.81216e-005
-4.80397e-005
-4.79587e-005
-4.78786e-005
-4.77996e-005
-4.77219e-005
-4.76464e-005
-4.7574e-005
-4.75095e-005
-4.74668e-005
-4.94863e-005
-4.94127e-005
-4.93084e-005
-4.921e-005
-4.91165e-005
-4.90235e-005
-4.89307e-005
-4.88383e-005
-4.87464e-005
-4.86555e-005
-4.85667e-005
-4.8482e-005
-4.8409e-005
-4.83631e-005
-5.0579e-005
-5.04967e-005
-5.03797e-005
-5.0268e-005
-5.01605e-005
-5.00523e-005
-4.9943e-005
-4.98329e-005
-4.9722e-005
-4.96112e-005
-4.95024e-005
-4.93988e-005
-4.93125e-005
-4.92612e-005
-5.17268e-005
-5.16335e-005
-5.15005e-005
-5.13723e-005
-5.12474e-005
-5.11202e-005
-5.09905e-005
-5.08585e-005
-5.07245e-005
-5.05895e-005
-5.04564e-005
-5.03305e-005
-5.02291e-005
-5.01728e-005
-5.29282e-005
-5.28205e-005
-5.26676e-005
-5.25194e-005
-5.23742e-005
-5.22252e-005
-5.20724e-005
-5.19163e-005
-5.17572e-005
-5.15966e-005
-5.14384e-005
-5.129e-005
-5.11748e-005
-5.11166e-005
-5.41919e-005
-5.40655e-005
-5.38881e-005
-5.37167e-005
-5.35486e-005
-5.33757e-005
-5.31985e-005
-5.30173e-005
-5.28326e-005
-5.26464e-005
-5.24632e-005
-5.22927e-005
-5.21658e-005
-5.21098e-005
-5.55383e-005
-5.5388e-005
-5.51807e-005
-5.49821e-005
-5.47884e-005
-5.45893e-005
-5.43858e-005
-5.41781e-005
-5.39667e-005
-5.37535e-005
-5.3544e-005
-5.33504e-005
-5.32125e-005
-5.31622e-005
-5.69939e-005
-5.68133e-005
-5.65692e-005
-5.6338e-005
-5.61142e-005
-5.58846e-005
-5.56509e-005
-5.54129e-005
-5.51707e-005
-5.49262e-005
-5.46858e-005
-5.44649e-005
-5.43147e-005
-5.42739e-005
-5.85849e-005
-5.83662e-005
-5.80762e-005
-5.7805e-005
-5.75442e-005
-5.72773e-005
-5.70061e-005
-5.67303e-005
-5.64496e-005
-5.61656e-005
-5.58858e-005
-5.56302e-005
-5.54649e-005
-5.54384e-005
-6.03343e-005
-6.00674e-005
-5.97201e-005
-5.93992e-005
-5.90927e-005
-5.87791e-005
-5.84611e-005
-5.81377e-005
-5.78079e-005
-5.74733e-005
-5.7143e-005
-5.68427e-005
-5.66582e-005
-5.6652e-005
-6.226e-005
-6.19334e-005
-6.15153e-005
-6.11332e-005
-6.07707e-005
-6.03998e-005
-6.00242e-005
-5.96423e-005
-5.92521e-005
-5.8855e-005
-5.8462e-005
-5.81068e-005
-5.78997e-005
-5.79222e-005
-6.43714e-005
-6.3972e-005
-6.34683e-005
-6.30126e-005
-6.25825e-005
-6.21427e-005
-6.16984e-005
-6.12469e-005
-6.07852e-005
-6.03146e-005
-5.98487e-005
-5.94305e-005
-5.92008e-005
-5.92642e-005
-6.66629e-005
-6.61765e-005
-6.55708e-005
-6.50286e-005
-6.45202e-005
-6.40008e-005
-6.34774e-005
-6.29465e-005
-6.2404e-005
-6.1851e-005
-6.13038e-005
-6.0817e-005
-6.05672e-005
-6.06863e-005
-6.91139e-005
-6.85251e-005
-6.78008e-005
-6.71602e-005
-6.65642e-005
-6.5957e-005
-6.53473e-005
-6.47306e-005
-6.41008e-005
-6.34582e-005
-6.28221e-005
-6.22596e-005
-6.19898e-005
-6.21776e-005
-7.16905e-005
-7.09842e-005
-7.01255e-005
-6.93757e-005
-6.8685e-005
-6.79842e-005
-6.7284e-005
-6.65776e-005
-6.58562e-005
-6.51179e-005
-6.43843e-005
-6.37369e-005
-6.34441e-005
-6.37106e-005
-7.43482e-005
-7.35107e-005
-7.25032e-005
-7.16345e-005
-7.08421e-005
-7.00417e-005
-6.92459e-005
-6.84453e-005
-6.76271e-005
-6.67869e-005
-6.59483e-005
-6.52092e-005
-6.48941e-005
-6.52527e-005
-7.7028e-005
-7.60488e-005
-7.4881e-005
-7.38847e-005
-7.29834e-005
-7.20764e-005
-7.11785e-005
-7.02775e-005
-6.93568e-005
-6.84094e-005
-6.74621e-005
-6.66305e-005
-6.63003e-005
-6.67685e-005
-7.9647e-005
-7.85194e-005
-7.7184e-005
-7.60554e-005
-7.50419e-005
-7.40251e-005
-7.30225e-005
-7.20192e-005
-7.0995e-005
-6.99404e-005
-6.88852e-005
-6.79638e-005
-6.76262e-005
-6.8217e-005
-8.21076e-005
-8.08305e-005
-7.93266e-005
-7.80665e-005
-7.69432e-005
-7.58199e-005
-7.47171e-005
-7.36171e-005
-7.24956e-005
-7.13399e-005
-7.01822e-005
-6.91753e-005
-6.88353e-005
-6.95543e-005
-8.4308e-005
-8.28889e-005
-8.1225e-005
-7.98407e-005
-7.86144e-005
-7.73928e-005
-7.61994e-005
-7.50135e-005
-7.38064e-005
-7.25614e-005
-7.13121e-005
-7.02292e-005
-6.98937e-005
-7.07411e-005
-8.61441e-005
-8.4599e-005
-8.27925e-005
-8.12977e-005
-7.99805e-005
-7.86733e-005
-7.74034e-005
-7.61478e-005
-7.48733e-005
-7.35586e-005
-7.22374e-005
-7.10959e-005
-7.07751e-005
-7.17452e-005
-8.75178e-005
-8.58729e-005
-8.39526e-005
-8.23695e-005
-8.09803e-005
-7.96061e-005
-7.82781e-005
-7.69721e-005
-7.56512e-005
-7.42903e-005
-7.29226e-005
-7.17478e-005
-7.14564e-005
-7.25387e-005
-8.83458e-005
-8.66375e-005
-8.46443e-005
-8.30055e-005
-8.15715e-005
-8.0156e-005
-7.8793e-005
-7.74576e-005
-7.61114e-005
-7.47284e-005
-7.33427e-005
-7.21641e-005
-7.19175e-005
-7.30941e-005
-8.85705e-005
-8.6845e-005
-8.48297e-005
-8.31748e-005
-8.1729e-005
-8.03027e-005
-7.89314e-005
-7.75914e-005
-7.62459e-005
-7.48698e-005
-7.34973e-005
-7.23434e-005
-7.21499e-005
-7.33903e-005
-8.81691e-005
-8.64808e-005
-8.45047e-005
-8.28789e-005
-8.14562e-005
-8.00522e-005
-7.87037e-005
-7.73893e-005
-7.60738e-005
-7.47333e-005
-7.34028e-005
-7.22986e-005
-7.2159e-005
-7.34206e-005
-8.71638e-005
-8.55702e-005
-8.36978e-005
-8.21497e-005
-8.07902e-005
-7.94467e-005
-7.81554e-005
-7.68957e-005
-7.56351e-005
-7.43536e-005
-7.30891e-005
-7.20553e-005
-7.19631e-005
-7.31936e-005
-8.5639e-005
-8.41958e-005
-8.2489e-005
-8.1065e-005
-7.98044e-005
-7.85523e-005
-7.73424e-005
-7.61577e-005
-7.49725e-005
-7.37738e-005
-7.26015e-005
-7.16572e-005
-7.15984e-005
-7.27374e-005
-8.37574e-005
-8.25166e-005
-8.10313e-005
-7.9767e-005
-7.86274e-005
-7.7482e-005
-7.63627e-005
-7.5261e-005
-7.41619e-005
-7.30605e-005
-7.1996e-005
-7.11522e-005
-7.11089e-005
-7.20959e-005
-8.17419e-005
-8.07327e-005
-7.94971e-005
-7.84054e-005
-7.73892e-005
-7.63491e-005
-7.53151e-005
-7.42884e-005
-7.32662e-005
-7.22546e-005
-7.12968e-005
-7.05561e-005
-7.05136e-005
-7.13084e-005
-7.99419e-005
-7.91729e-005
-7.81745e-005
-7.72288e-005
-7.63085e-005
-7.53522e-005
-7.43835e-005
-7.3409e-005
-7.24366e-005
-7.14861e-005
-7.06098e-005
-6.99534e-005
-6.98973e-005
-7.0487e-005
-7.85763e-005
-7.80017e-005
-7.7164e-005
-7.62673e-005
-7.53262e-005
-7.43369e-005
-7.33247e-005
-7.23086e-005
-7.13138e-005
-7.03806e-005
-6.95729e-005
-6.90222e-005
-6.90194e-005
-6.95096e-005
-5.05956e-007
-5.08623e-007
-5.09826e-007
-5.10956e-007
-5.11907e-007
-5.12769e-007
-5.13596e-007
-5.14418e-007
-5.1524e-007
-5.16057e-007
-5.16854e-007
-5.17593e-007
-5.18205e-007
-5.1842e-007
-1.52936e-006
-1.53227e-006
-1.53405e-006
-1.53587e-006
-1.53769e-006
-1.53956e-006
-1.54153e-006
-1.54359e-006
-1.54573e-006
-1.54791e-006
-1.55005e-006
-1.55205e-006
-1.55374e-006
-1.5547e-006
-2.56931e-006
-2.57009e-006
-2.5713e-006
-2.57291e-006
-2.57485e-006
-2.57709e-006
-2.5796e-006
-2.58234e-006
-2.58524e-006
-2.58823e-006
-2.5912e-006
-2.59403e-006
-2.59648e-006
-2.59809e-006
-3.60221e-006
-3.6032e-006
-3.60432e-006
-3.60597e-006
-3.60808e-006
-3.61067e-006
-3.61367e-006
-3.61702e-006
-3.62065e-006
-3.62444e-006
-3.62828e-006
-3.63198e-006
-3.63525e-006
-3.6375e-006
-4.62272e-006
-4.62397e-006
-4.62529e-006
-4.62721e-006
-4.62967e-006
-4.63271e-006
-4.63628e-006
-4.64032e-006
-4.64473e-006
-4.64938e-006
-4.65412e-006
-4.65872e-006
-4.66282e-006
-4.66565e-006
-5.62576e-006
-5.62723e-006
-5.62875e-006
-5.63097e-006
-5.63383e-006
-5.63736e-006
-5.64152e-006
-5.64623e-006
-5.6514e-006
-5.65688e-006
-5.66247e-006
-5.66792e-006
-5.67278e-006
-5.67615e-006
-6.60812e-006
-6.6098e-006
-6.61153e-006
-6.61408e-006
-6.61736e-006
-6.62142e-006
-6.6262e-006
-6.63162e-006
-6.63754e-006
-6.64382e-006
-6.65024e-006
-6.65648e-006
-6.66203e-006
-6.66586e-006
-7.56646e-006
-7.56835e-006
-7.57029e-006
-7.57313e-006
-7.57677e-006
-7.5813e-006
-7.58664e-006
-7.59268e-006
-7.59929e-006
-7.60629e-006
-7.61344e-006
-7.62037e-006
-7.62652e-006
-7.63077e-006
-8.49771e-006
-8.49979e-006
-8.50192e-006
-8.50504e-006
-8.50904e-006
-8.51399e-006
-8.51981e-006
-8.5264e-006
-8.5336e-006
-8.54123e-006
-8.54902e-006
-8.55657e-006
-8.56325e-006
-8.56784e-006
-9.39911e-006
-9.40136e-006
-9.40364e-006
-9.407e-006
-9.41131e-006
-9.41664e-006
-9.42291e-006
-9.42999e-006
-9.43774e-006
-9.44593e-006
-9.45427e-006
-9.46235e-006
-9.46947e-006
-9.47436e-006
-1.02684e-005
-1.02708e-005
-1.02732e-005
-1.02768e-005
-1.02814e-005
-1.0287e-005
-1.02937e-005
-1.03012e-005
-1.03093e-005
-1.0318e-005
-1.03268e-005
-1.03353e-005
-1.03428e-005
-1.03479e-005
-1.11038e-005
-1.11063e-005
-1.11089e-005
-1.11126e-005
-1.11174e-005
-1.11233e-005
-1.11302e-005
-1.1138e-005
-1.11465e-005
-1.11555e-005
-1.11646e-005
-1.11734e-005
-1.11811e-005
-1.11864e-005
-1.19036e-005
-1.19062e-005
-1.19089e-005
-1.19128e-005
-1.19178e-005
-1.19239e-005
-1.1931e-005
-1.1939e-005
-1.19478e-005
-1.1957e-005
-1.19664e-005
-1.19754e-005
-1.19832e-005
-1.19885e-005
-1.26669e-005
-1.26697e-005
-1.26724e-005
-1.26764e-005
-1.26815e-005
-1.26877e-005
-1.2695e-005
-1.27032e-005
-1.27121e-005
-1.27214e-005
-1.27309e-005
-1.274e-005
-1.27479e-005
-1.27532e-005
-1.33932e-005
-1.3396e-005
-1.33989e-005
-1.34029e-005
-1.34081e-005
-1.34144e-005
-1.34217e-005
-1.34299e-005
-1.34389e-005
-1.34482e-005
-1.34577e-005
-1.34668e-005
-1.34747e-005
-1.348e-005
-1.40824e-005
-1.40852e-005
-1.40881e-005
-1.40922e-005
-1.40974e-005
-1.41037e-005
-1.4111e-005
-1.41192e-005
-1.41281e-005
-1.41374e-005
-1.41468e-005
-1.41559e-005
-1.41637e-005
-1.41689e-005
-1.47349e-005
-1.47377e-005
-1.47406e-005
-1.47448e-005
-1.47499e-005
-1.47561e-005
-1.47633e-005
-1.47714e-005
-1.47802e-005
-1.47894e-005
-1.47987e-005
-1.48076e-005
-1.48153e-005
-1.48204e-005
-1.53516e-005
-1.53544e-005
-1.53574e-005
-1.53614e-005
-1.53665e-005
-1.53726e-005
-1.53796e-005
-1.53875e-005
-1.53961e-005
-1.5405e-005
-1.54141e-005
-1.54228e-005
-1.54303e-005
-1.54353e-005
-1.59341e-005
-1.59368e-005
-1.59397e-005
-1.59437e-005
-1.59486e-005
-1.59545e-005
-1.59613e-005
-1.59689e-005
-1.59771e-005
-1.59857e-005
-1.59944e-005
-1.60028e-005
-1.60101e-005
-1.60151e-005
-1.64842e-005
-1.64869e-005
-1.64897e-005
-1.64935e-005
-1.64982e-005
-1.65038e-005
-1.65103e-005
-1.65175e-005
-1.65253e-005
-1.65335e-005
-1.65418e-005
-1.65499e-005
-1.65569e-005
-1.65617e-005
-1.70043e-005
-1.70069e-005
-1.70096e-005
-1.70133e-005
-1.70177e-005
-1.7023e-005
-1.7029e-005
-1.70358e-005
-1.70431e-005
-1.70508e-005
-1.70587e-005
-1.70663e-005
-1.70731e-005
-1.70777e-005
-1.74971e-005
-1.74995e-005
-1.75021e-005
-1.75055e-005
-1.75096e-005
-1.75145e-005
-1.75201e-005
-1.75263e-005
-1.7533e-005
-1.75402e-005
-1.75475e-005
-1.75547e-005
-1.75611e-005
-1.75657e-005
-1.79654e-005
-1.79677e-005
-1.79701e-005
-1.79733e-005
-1.7977e-005
-1.79814e-005
-1.79865e-005
-1.79921e-005
-1.79982e-005
-1.80047e-005
-1.80114e-005
-1.80181e-005
-1.80243e-005
-1.80287e-005
-1.84128e-005
-1.84149e-005
-1.84171e-005
-1.842e-005
-1.84233e-005
-1.84272e-005
-1.84316e-005
-1.84366e-005
-1.8442e-005
-1.84478e-005
-1.84538e-005
-1.84599e-005
-1.84658e-005
-1.847e-005
-1.88429e-005
-1.88447e-005
-1.88467e-005
-1.88492e-005
-1.88521e-005
-1.88554e-005
-1.88592e-005
-1.88634e-005
-1.8868e-005
-1.8873e-005
-1.88784e-005
-1.88839e-005
-1.88893e-005
-1.88933e-005
-1.92593e-005
-1.92609e-005
-1.92626e-005
-1.92647e-005
-1.92671e-005
-1.92698e-005
-1.92729e-005
-1.92763e-005
-1.92802e-005
-1.92843e-005
-1.92889e-005
-1.92937e-005
-1.92987e-005
-1.93026e-005
-1.9666e-005
-1.96674e-005
-1.96688e-005
-1.96705e-005
-1.96723e-005
-1.96744e-005
-1.96768e-005
-1.96794e-005
-1.96824e-005
-1.96857e-005
-1.96894e-005
-1.96936e-005
-1.96981e-005
-1.97017e-005
-2.00672e-005
-2.00683e-005
-2.00693e-005
-2.00705e-005
-2.00718e-005
-2.00733e-005
-2.00748e-005
-2.00766e-005
-2.00787e-005
-2.00811e-005
-2.00839e-005
-2.00873e-005
-2.00913e-005
-2.00946e-005
-2.04667e-005
-2.04676e-005
-2.04682e-005
-2.0469e-005
-2.04697e-005
-2.04704e-005
-2.04711e-005
-2.0472e-005
-2.0473e-005
-2.04744e-005
-2.04763e-005
-2.04788e-005
-2.04821e-005
-2.0485e-005
-2.08686e-005
-2.08691e-005
-2.08694e-005
-2.08696e-005
-2.08697e-005
-2.08696e-005
-2.08695e-005
-2.08694e-005
-2.08694e-005
-2.08697e-005
-2.08706e-005
-2.08721e-005
-2.08745e-005
-2.08769e-005
-2.12765e-005
-2.12767e-005
-2.12766e-005
-2.12763e-005
-2.12757e-005
-2.12749e-005
-2.12739e-005
-2.12728e-005
-2.12718e-005
-2.1271e-005
-2.12707e-005
-2.12712e-005
-2.12728e-005
-2.12745e-005
-2.16941e-005
-2.1694e-005
-2.16934e-005
-2.16926e-005
-2.16914e-005
-2.16898e-005
-2.16879e-005
-2.16858e-005
-2.16837e-005
-2.16819e-005
-2.16805e-005
-2.16799e-005
-2.16806e-005
-2.16817e-005
-2.21247e-005
-2.21243e-005
-2.21233e-005
-2.21219e-005
-2.212e-005
-2.21176e-005
-2.21149e-005
-2.21119e-005
-2.21088e-005
-2.21058e-005
-2.21033e-005
-2.21016e-005
-2.21013e-005
-2.21017e-005
-2.25716e-005
-2.25708e-005
-2.25693e-005
-2.25674e-005
-2.25648e-005
-2.25617e-005
-2.2558e-005
-2.2554e-005
-2.25499e-005
-2.25458e-005
-2.25421e-005
-2.25393e-005
-2.25379e-005
-2.25374e-005
-2.30376e-005
-2.30364e-005
-2.30344e-005
-2.30319e-005
-2.30286e-005
-2.30246e-005
-2.30201e-005
-2.30151e-005
-2.30098e-005
-2.30046e-005
-2.29997e-005
-2.29956e-005
-2.29931e-005
-2.29917e-005
-2.35252e-005
-2.35237e-005
-2.35212e-005
-2.3518e-005
-2.35139e-005
-2.35091e-005
-2.35036e-005
-2.34976e-005
-2.34912e-005
-2.34847e-005
-2.34786e-005
-2.34732e-005
-2.34694e-005
-2.34672e-005
-2.40368e-005
-2.40349e-005
-2.40317e-005
-2.40278e-005
-2.4023e-005
-2.40173e-005
-2.40108e-005
-2.40037e-005
-2.39961e-005
-2.39884e-005
-2.3981e-005
-2.39744e-005
-2.39693e-005
-2.3966e-005
-2.45743e-005
-2.45718e-005
-2.45681e-005
-2.45634e-005
-2.45578e-005
-2.45512e-005
-2.45436e-005
-2.45354e-005
-2.45266e-005
-2.45176e-005
-2.45089e-005
-2.45009e-005
-2.44945e-005
-2.44903e-005
-2.51392e-005
-2.51363e-005
-2.51318e-005
-2.51264e-005
-2.51199e-005
-2.51122e-005
-2.51037e-005
-2.50942e-005
-2.50842e-005
-2.5074e-005
-2.50639e-005
-2.50545e-005
-2.50468e-005
-2.50416e-005
-2.5733e-005
-2.57296e-005
-2.57243e-005
-2.5718e-005
-2.57105e-005
-2.57019e-005
-2.56922e-005
-2.56816e-005
-2.56703e-005
-2.56587e-005
-2.56472e-005
-2.56365e-005
-2.56275e-005
-2.56213e-005
-2.63566e-005
-2.63527e-005
-2.63465e-005
-2.63393e-005
-2.63309e-005
-2.63212e-005
-2.63103e-005
-2.62985e-005
-2.62859e-005
-2.62729e-005
-2.62599e-005
-2.62478e-005
-2.62375e-005
-2.62304e-005
-2.70108e-005
-2.70063e-005
-2.69992e-005
-2.6991e-005
-2.69815e-005
-2.69707e-005
-2.69586e-005
-2.69454e-005
-2.69315e-005
-2.69171e-005
-2.69027e-005
-2.68892e-005
-2.68777e-005
-2.68697e-005
-2.76955e-005
-2.76903e-005
-2.76823e-005
-2.7673e-005
-2.76625e-005
-2.76505e-005
-2.76372e-005
-2.76227e-005
-2.76074e-005
-2.75915e-005
-2.75757e-005
-2.75608e-005
-2.75482e-005
-2.75393e-005
-2.84101e-005
-2.84043e-005
-2.83952e-005
-2.83849e-005
-2.83732e-005
-2.836e-005
-2.83455e-005
-2.83297e-005
-2.83129e-005
-2.82956e-005
-2.82784e-005
-2.82622e-005
-2.82485e-005
-2.82388e-005
-2.91532e-005
-2.91467e-005
-2.91365e-005
-2.91251e-005
-2.91123e-005
-2.90979e-005
-2.90821e-005
-2.90649e-005
-2.90468e-005
-2.90281e-005
-2.90095e-005
-2.8992e-005
-2.89772e-005
-2.89667e-005
-2.99223e-005
-2.99152e-005
-2.99039e-005
-2.98913e-005
-2.98773e-005
-2.98617e-005
-2.98446e-005
-2.98262e-005
-2.98067e-005
-2.97866e-005
-2.97666e-005
-2.97477e-005
-2.97319e-005
-2.97206e-005
-3.07142e-005
-3.07064e-005
-3.06939e-005
-3.06801e-005
-3.0665e-005
-3.06482e-005
-3.06298e-005
-3.061e-005
-3.05891e-005
-3.05676e-005
-3.05462e-005
-3.0526e-005
-3.0509e-005
-3.04968e-005
-3.15243e-005
-3.15158e-005
-3.1502e-005
-3.14871e-005
-3.14707e-005
-3.14527e-005
-3.1433e-005
-3.1412e-005
-3.13897e-005
-3.13668e-005
-3.13439e-005
-3.13222e-005
-3.13041e-005
-3.12908e-005
-3.23471e-005
-3.23378e-005
-3.23228e-005
-3.23066e-005
-3.2289e-005
-3.22698e-005
-3.22489e-005
-3.22265e-005
-3.22029e-005
-3.21785e-005
-3.21542e-005
-3.21311e-005
-3.21116e-005
-3.20973e-005
-3.31762e-005
-3.31662e-005
-3.31497e-005
-3.31322e-005
-3.31134e-005
-3.3093e-005
-3.30708e-005
-3.30472e-005