/*--------------------------------*- C++ -*----------------------------------*\
| =========                 |                                                 |
| \\      /  F ield         | OpenFOAM: The Open Source CFD Toolbox           |
|  \\    /   O peration     | Version:  5.x                                   |
|   \\  /    A nd           | Web:      www.OpenFOAM.org                      |
|    \\/     M anipulation  |                                                 |
\*---------------------------------------------------------------------------*/
/*   Windows 32 and 64 bit porting by blueCAPE: http://www.bluecape.com.pt   *\
|  Based on Windows porting (2.0.x v4) by Symscape: http://www.symscape.com   |
\*---------------------------------------------------------------------------*/
FoamFile
{
    version     2.0;
    format      ascii;
    class       volScalarField;
    location    "1.4";
    object      p;
}
// * * * * * * * * * * * * * * * * * * * * * * * * * * * * * * * * * * * * * //

dimensions      [0 2 -2 0 0 0 0];

internalField   nonuniform List<scalar> 
141075
(
-4.51661e-007
-4.52119e-007
-4.52048e-007
-4.52074e-007
-4.52024e-007
-4.51899e-007
-4.5174e-007
-4.5157e-007
-4.51399e-007
-4.5123e-007
-4.51043e-007
-4.50795e-007
-4.50422e-007
-4.49902e-007
-1.37717e-006
-1.37698e-006
-1.37597e-006
-1.37521e-006
-1.37457e-006
-1.37388e-006
-1.37315e-006
-1.3724e-006
-1.37167e-006
-1.37095e-006
-1.37023e-006
-1.36945e-006
-1.36851e-006
-1.36757e-006
-2.32953e-006
-2.3284e-006
-2.32659e-006
-2.32491e-006
-2.32334e-006
-2.32186e-006
-2.32044e-006
-2.31907e-006
-2.31775e-006
-2.31645e-006
-2.31514e-006
-2.31375e-006
-2.31213e-006
-2.31062e-006
-3.28335e-006
-3.28174e-006
-3.27926e-006
-3.2768e-006
-3.27435e-006
-3.27195e-006
-3.26962e-006
-3.26741e-006
-3.26532e-006
-3.26335e-006
-3.26141e-006
-3.2594e-006
-3.25712e-006
-3.25504e-006
-4.23899e-006
-4.23683e-006
-4.23359e-006
-4.23053e-006
-4.22754e-006
-4.22453e-006
-4.22155e-006
-4.21865e-006
-4.21588e-006
-4.21326e-006
-4.21072e-006
-4.20814e-006
-4.20528e-006
-4.20275e-006
-5.19818e-006
-5.19542e-006
-5.19125e-006
-5.1874e-006
-5.18378e-006
-5.18016e-006
-5.17659e-006
-5.17311e-006
-5.16977e-006
-5.16659e-006
-5.16349e-006
-5.16032e-006
-5.15681e-006
-5.15375e-006
-6.1627e-006
-6.1595e-006
-6.15462e-006
-6.15e-006
-6.14558e-006
-6.14122e-006
-6.13694e-006
-6.1328e-006
-6.12883e-006
-6.12502e-006
-6.1213e-006
-6.11747e-006
-6.11325e-006
-6.10962e-006
-7.13202e-006
-7.12838e-006
-7.12283e-006
-7.11752e-006
-7.11238e-006
-7.10728e-006
-7.10226e-006
-7.09741e-006
-7.09276e-006
-7.08829e-006
-7.08392e-006
-7.07943e-006
-7.07452e-006
-7.07038e-006
-8.10616e-006
-8.102e-006
-8.0957e-006
-8.08973e-006
-8.08396e-006
-8.07822e-006
-8.07256e-006
-8.06707e-006
-8.06178e-006
-8.05672e-006
-8.05177e-006
-8.04671e-006
-8.0412e-006
-8.03656e-006
-9.08571e-006
-9.08106e-006
-9.07403e-006
-9.06738e-006
-9.06098e-006
-9.0546e-006
-9.0483e-006
-9.04217e-006
-9.03626e-006
-9.03056e-006
-9.02499e-006
-9.01928e-006
-9.01308e-006
-9.00788e-006
-1.0071e-005
-1.00659e-005
-1.00581e-005
-1.00508e-005
-1.00437e-005
-1.00367e-005
-1.00298e-005
-1.00231e-005
-1.00165e-005
-1.00101e-005
-1.00038e-005
-9.99739e-006
-9.99042e-006
-9.98463e-006
-1.1062e-005
-1.10564e-005
-1.1048e-005
-1.104e-005
-1.10323e-005
-1.10247e-005
-1.10171e-005
-1.10097e-005
-1.10026e-005
-1.09956e-005
-1.09887e-005
-1.09816e-005
-1.0974e-005
-1.09677e-005
-1.20584e-005
-1.20523e-005
-1.20432e-005
-1.20346e-005
-1.20262e-005
-1.2018e-005
-1.20098e-005
-1.20018e-005
-1.1994e-005
-1.19865e-005
-1.19791e-005
-1.19715e-005
-1.19634e-005
-1.19566e-005
-1.306e-005
-1.30535e-005
-1.30436e-005
-1.30343e-005
-1.30254e-005
-1.30165e-005
-1.30077e-005
-1.2999e-005
-1.29906e-005
-1.29824e-005
-1.29744e-005
-1.29661e-005
-1.29573e-005
-1.29501e-005
-1.40668e-005
-1.40598e-005
-1.40492e-005
-1.40392e-005
-1.40296e-005
-1.40201e-005
-1.40106e-005
-1.40013e-005
-1.39922e-005
-1.39833e-005
-1.39745e-005
-1.39655e-005
-1.3956e-005
-1.39482e-005
-1.50786e-005
-1.50711e-005
-1.50598e-005
-1.50491e-005
-1.50388e-005
-1.50287e-005
-1.50185e-005
-1.50085e-005
-1.49987e-005
-1.49891e-005
-1.49796e-005
-1.497e-005
-1.49598e-005
-1.49516e-005
-1.60949e-005
-1.60868e-005
-1.60748e-005
-1.60634e-005
-1.60526e-005
-1.60417e-005
-1.6031e-005
-1.60203e-005
-1.60099e-005
-1.59997e-005
-1.59895e-005
-1.59793e-005
-1.59687e-005
-1.59602e-005
-1.7115e-005
-1.71065e-005
-1.70937e-005
-1.70817e-005
-1.70702e-005
-1.70587e-005
-1.70473e-005
-1.7036e-005
-1.7025e-005
-1.70141e-005
-1.70033e-005
-1.69925e-005
-1.69814e-005
-1.69726e-005
-1.81387e-005
-1.81296e-005
-1.81161e-005
-1.81033e-005
-1.80911e-005
-1.8079e-005
-1.80669e-005
-1.8055e-005
-1.80432e-005
-1.80316e-005
-1.80202e-005
-1.80087e-005
-1.7997e-005
-1.79879e-005
-1.91654e-005
-1.91558e-005
-1.91414e-005
-1.91279e-005
-1.9115e-005
-1.91022e-005
-1.90894e-005
-1.90768e-005
-1.90642e-005
-1.90519e-005
-1.90396e-005
-1.90274e-005
-1.90153e-005
-1.9006e-005
-2.01947e-005
-2.01846e-005
-2.01693e-005
-2.0155e-005
-2.01414e-005
-2.01279e-005
-2.01144e-005
-2.0101e-005
-2.00877e-005
-2.00746e-005
-2.00616e-005
-2.00487e-005
-2.00361e-005
-2.00266e-005
-2.12262e-005
-2.12154e-005
-2.11993e-005
-2.11842e-005
-2.11699e-005
-2.11556e-005
-2.11414e-005
-2.11273e-005
-2.11133e-005
-2.10994e-005
-2.10857e-005
-2.10721e-005
-2.10591e-005
-2.10495e-005
-2.2259e-005
-2.22477e-005
-2.22308e-005
-2.22149e-005
-2.21998e-005
-2.21849e-005
-2.217e-005
-2.21551e-005
-2.21404e-005
-2.21257e-005
-2.21113e-005
-2.20971e-005
-2.20836e-005
-2.20738e-005
-2.32927e-005
-2.32808e-005
-2.32629e-005
-2.32463e-005
-2.32305e-005
-2.32149e-005
-2.31992e-005
-2.31837e-005
-2.31682e-005
-2.31528e-005
-2.31376e-005
-2.31227e-005
-2.31087e-005
-2.30988e-005
-2.43265e-005
-2.4314e-005
-2.42952e-005
-2.42777e-005
-2.42612e-005
-2.42448e-005
-2.42284e-005
-2.42122e-005
-2.41959e-005
-2.41797e-005
-2.41638e-005
-2.41482e-005
-2.41337e-005
-2.41235e-005
-2.53595e-005
-2.53463e-005
-2.53266e-005
-2.53083e-005
-2.52909e-005
-2.52738e-005
-2.52567e-005
-2.52396e-005
-2.52226e-005
-2.52057e-005
-2.5189e-005
-2.51727e-005
-2.51575e-005
-2.5147e-005
-2.63907e-005
-2.63768e-005
-2.63561e-005
-2.63369e-005
-2.63188e-005
-2.63008e-005
-2.62829e-005
-2.62651e-005
-2.62472e-005
-2.62295e-005
-2.6212e-005
-2.61949e-005
-2.6179e-005
-2.61682e-005
-2.74192e-005
-2.74046e-005
-2.73829e-005
-2.73628e-005
-2.73438e-005
-2.73249e-005
-2.73062e-005
-2.72875e-005
-2.72688e-005
-2.72502e-005
-2.72319e-005
-2.72139e-005
-2.71973e-005
-2.7186e-005
-2.84443e-005
-2.84289e-005
-2.84061e-005
-2.83849e-005
-2.8365e-005
-2.83452e-005
-2.83255e-005
-2.8306e-005
-2.82864e-005
-2.82669e-005
-2.82477e-005
-2.82289e-005
-2.82114e-005
-2.81995e-005
-2.9465e-005
-2.94487e-005
-2.94247e-005
-2.94025e-005
-2.93816e-005
-2.93608e-005
-2.93401e-005
-2.93196e-005
-2.92991e-005
-2.92787e-005
-2.92586e-005
-2.92388e-005
-2.92204e-005
-2.92078e-005
-3.04805e-005
-3.04632e-005
-3.04381e-005
-3.04147e-005
-3.03927e-005
-3.03709e-005
-3.03492e-005
-3.03276e-005
-3.03061e-005
-3.02847e-005
-3.02635e-005
-3.02427e-005
-3.02232e-005
-3.02099e-005
-3.14902e-005
-3.14719e-005
-3.14454e-005
-3.14208e-005
-3.13977e-005
-3.13747e-005
-3.13519e-005
-3.13291e-005
-3.13065e-005
-3.12839e-005
-3.12616e-005
-3.12397e-005
-3.1219e-005
-3.12049e-005
-3.24936e-005
-3.24742e-005
-3.24462e-005
-3.24203e-005
-3.23959e-005
-3.23716e-005
-3.23475e-005
-3.23235e-005
-3.22995e-005
-3.22757e-005
-3.22521e-005
-3.22289e-005
-3.2207e-005
-3.21919e-005
-3.34901e-005
-3.34695e-005
-3.34399e-005
-3.34125e-005
-3.33866e-005
-3.33609e-005
-3.33353e-005
-3.33099e-005
-3.32845e-005
-3.32592e-005
-3.32342e-005
-3.32094e-005
-3.31861e-005
-3.31701e-005
-3.44794e-005
-3.44574e-005
-3.4426e-005
-3.43969e-005
-3.43695e-005
-3.43421e-005
-3.43149e-005
-3.42878e-005
-3.42608e-005
-3.42338e-005
-3.42071e-005
-3.41807e-005
-3.41559e-005
-3.41391e-005
-3.54615e-005
-3.54378e-005
-3.54044e-005
-3.53734e-005
-3.53442e-005
-3.5315e-005
-3.52859e-005
-3.52569e-005
-3.5228e-005
-3.51992e-005
-3.51705e-005
-3.51423e-005
-3.5116e-005
-3.50984e-005
-3.64365e-005
-3.6411e-005
-3.63753e-005
-3.63422e-005
-3.63109e-005
-3.62796e-005
-3.62484e-005
-3.62173e-005
-3.61862e-005
-3.61552e-005
-3.61244e-005
-3.60941e-005
-3.60661e-005
-3.60481e-005
-3.74053e-005
-3.73777e-005
-3.73393e-005
-3.73038e-005
-3.72701e-005
-3.72365e-005
-3.72028e-005
-3.71693e-005
-3.71357e-005
-3.71022e-005
-3.70689e-005
-3.70362e-005
-3.70066e-005
-3.69881e-005
-3.83686e-005
-3.83387e-005
-3.82974e-005
-3.82591e-005
-3.82229e-005
-3.81865e-005
-3.81501e-005
-3.81137e-005
-3.80774e-005
-3.80409e-005
-3.80047e-005
-3.79693e-005
-3.79379e-005
-3.79192e-005
-3.9328e-005
-3.92954e-005
-3.92506e-005
-3.92093e-005
-3.91701e-005
-3.91306e-005
-3.90911e-005
-3.90517e-005
-3.9012e-005
-3.89723e-005
-3.89327e-005
-3.88943e-005
-3.88609e-005
-3.88419e-005
-4.0285e-005
-4.02493e-005
-4.02007e-005
-4.01559e-005
-4.01133e-005
-4.00704e-005
-4.00273e-005
-3.99842e-005
-3.99409e-005
-3.98973e-005
-3.9854e-005
-3.98121e-005
-3.97764e-005
-3.97574e-005
-4.12414e-005
-4.12021e-005
-4.11493e-005
-4.11006e-005
-4.10542e-005
-4.10073e-005
-4.09602e-005
-4.0913e-005
-4.08655e-005
-4.08175e-005
-4.07698e-005
-4.0724e-005
-4.06858e-005
-4.06668e-005
-4.21993e-005
-4.2156e-005
-4.20983e-005
-4.20451e-005
-4.19945e-005
-4.19432e-005
-4.18916e-005
-4.18398e-005
-4.17875e-005
-4.17347e-005
-4.16821e-005
-4.16317e-005
-4.15909e-005
-4.1572e-005
-4.31613e-005
-4.31134e-005
-4.30502e-005
-4.2992e-005
-4.29366e-005
-4.28803e-005
-4.28237e-005
-4.27667e-005
-4.27091e-005
-4.26507e-005
-4.25926e-005
-4.25373e-005
-4.24935e-005
-4.24747e-005
-4.41301e-005
-4.40771e-005
-4.40076e-005
-4.39439e-005
-4.38831e-005
-4.38212e-005
-4.37588e-005
-4.3696e-005
-4.36324e-005
-4.35679e-005
-4.35035e-005
-4.34426e-005
-4.33955e-005
-4.33771e-005
-4.51086e-005
-4.50497e-005
-4.49733e-005
-4.49033e-005
-4.48365e-005
-4.47683e-005
-4.46995e-005
-4.46302e-005
-4.45598e-005
-4.44884e-005
-4.44171e-005
-4.43498e-005
-4.42992e-005
-4.42813e-005
-4.60998e-005
-4.60342e-005
-4.59499e-005
-4.58729e-005
-4.57994e-005
-4.57242e-005
-4.56482e-005
-4.55716e-005
-4.54937e-005
-4.54145e-005
-4.53355e-005
-4.52612e-005
-4.52066e-005
-4.51896e-005
-4.71071e-005
-4.70338e-005
-4.69406e-005
-4.68557e-005
-4.67748e-005
-4.66917e-005
-4.66078e-005
-4.6523e-005
-4.64368e-005
-4.63489e-005
-4.62611e-005
-4.61791e-005
-4.61202e-005
-4.61042e-005
-4.8134e-005
-4.80521e-005
-4.79489e-005
-4.78552e-005
-4.77658e-005
-4.76739e-005
-4.75811e-005
-4.74873e-005
-4.73917e-005
-4.72941e-005
-4.71966e-005
-4.71058e-005
-4.70421e-005
-4.70276e-005
-4.91839e-005
-4.90923e-005
-4.8978e-005
-4.88744e-005
-4.87756e-005
-4.86739e-005
-4.85711e-005
-4.84672e-005
-4.83612e-005
-4.82528e-005
-4.81445e-005
-4.8044e-005
-4.79751e-005
-4.79624e-005
-5.02599e-005
-5.01574e-005
-5.00307e-005
-4.99161e-005
-4.9807e-005
-4.96944e-005
-4.95806e-005
-4.94655e-005
-4.93479e-005
-4.92276e-005
-4.91073e-005
-4.8996e-005
-4.89215e-005
-4.89113e-005
-5.13657e-005
-5.12509e-005
-5.11101e-005
-5.09833e-005
-5.08628e-005
-5.07382e-005
-5.06123e-005
-5.04848e-005
-5.03546e-005
-5.02211e-005
-5.00875e-005
-4.99643e-005
-4.98839e-005
-4.98767e-005
-5.2505e-005
-5.23765e-005
-5.22201e-005
-5.20797e-005
-5.19464e-005
-5.18085e-005
-5.16692e-005
-5.15282e-005
-5.1384e-005
-5.1236e-005
-5.10877e-005
-5.09515e-005
-5.08646e-005
-5.08612e-005
-5.36809e-005
-5.35372e-005
-5.33636e-005
-5.32083e-005
-5.30608e-005
-5.29083e-005
-5.27542e-005
-5.25983e-005
-5.24387e-005
-5.22748e-005
-5.21105e-005
-5.196e-005
-5.18662e-005
-5.18673e-005
-5.48959e-005
-5.47353e-005
-5.45427e-005
-5.4371e-005
-5.42083e-005
-5.40397e-005
-5.38696e-005
-5.36973e-005
-5.3521e-005
-5.33397e-005
-5.31578e-005
-5.29917e-005
-5.28906e-005
-5.28971e-005
-5.61529e-005
-5.59734e-005
-5.57599e-005
-5.55702e-005
-5.53908e-005
-5.52048e-005
-5.50172e-005
-5.48274e-005
-5.46329e-005
-5.44326e-005
-5.42316e-005
-5.40486e-005
-5.39397e-005
-5.39523e-005
-5.74544e-005
-5.72543e-005
-5.70177e-005
-5.68082e-005
-5.66105e-005
-5.64055e-005
-5.61989e-005
-5.59898e-005
-5.57756e-005
-5.55548e-005
-5.53331e-005
-5.51317e-005
-5.50145e-005
-5.50343e-005
-5.8802e-005
-5.85794e-005
-5.83178e-005
-5.8087e-005
-5.78693e-005
-5.76437e-005
-5.74165e-005
-5.71867e-005
-5.69511e-005
-5.67081e-005
-5.64641e-005
-5.6243e-005
-5.6117e-005
-5.61449e-005
-6.01956e-005
-5.99484e-005
-5.96595e-005
-5.94057e-005
-5.91667e-005
-5.89189e-005
-5.86696e-005
-5.84175e-005
-5.8159e-005
-5.7892e-005
-5.76239e-005
-5.73815e-005
-5.72463e-005
-5.72835e-005
-6.16356e-005
-6.13616e-005
-6.10432e-005
-6.07644e-005
-6.05027e-005
-6.02312e-005
-5.99583e-005
-5.96825e-005
-5.93995e-005
-5.9107e-005
-5.88131e-005
-5.8548e-005
-5.84034e-005
-5.84511e-005
-6.31216e-005
-6.28187e-005
-6.24685e-005
-6.2163e-005
-6.18767e-005
-6.15799e-005
-6.12818e-005
-6.09807e-005
-6.06718e-005
-6.03522e-005
-6.00309e-005
-5.97419e-005
-5.95874e-005
-5.9647e-005
-6.46523e-005
-6.43184e-005
-6.39343e-005
-6.36001e-005
-6.32876e-005
-6.29638e-005
-6.26389e-005
-6.2311e-005
-6.19746e-005
-6.16264e-005
-6.12762e-005
-6.09619e-005
-6.07974e-005
-6.08702e-005
-6.62245e-005
-6.58576e-005
-6.54373e-005
-6.50729e-005
-6.47328e-005
-6.43805e-005
-6.40274e-005
-6.36713e-005
-6.3306e-005
-6.29277e-005
-6.25471e-005
-6.22064e-005
-6.20319e-005
-6.21196e-005
-6.78344e-005
-6.74324e-005
-6.69738e-005
-6.65776e-005
-6.62086e-005
-6.58265e-005
-6.5444e-005
-6.50585e-005
-6.46631e-005
-6.42535e-005
-6.38414e-005
-6.34734e-005
-6.32891e-005
-6.33931e-005
-6.9478e-005
-6.90388e-005
-6.85398e-005
-6.81102e-005
-6.77111e-005
-6.72979e-005
-6.68849e-005
-6.6469e-005
-6.60425e-005
-6.56006e-005
-6.51559e-005
-6.47598e-005
-6.45659e-005
-6.46879e-005
-7.115e-005
-7.06721e-005
-7.0131e-005
-6.96664e-005
-6.92357e-005
-6.87903e-005
-6.83456e-005
-6.78983e-005
-6.74399e-005
-6.69647e-005
-6.64867e-005
-6.6062e-005
-6.58589e-005
-6.60006e-005
-7.28432e-005
-7.2325e-005
-7.17404e-005
-7.12398e-005
-7.07767e-005
-7.0298e-005
-6.98206e-005
-6.93412e-005
-6.88501e-005
-6.83411e-005
-6.78292e-005
-6.73755e-005
-6.71639e-005
-6.73269e-005
-7.4549e-005
-7.39891e-005
-7.33596e-005
-7.28223e-005
-7.23262e-005
-7.18137e-005
-7.13033e-005
-7.07913e-005
-7.02671e-005
-6.97239e-005
-6.91778e-005
-6.86952e-005
-6.84758e-005
-6.86617e-005
-7.6259e-005
-7.56564e-005
-7.49806e-005
-7.44057e-005
-7.38762e-005
-7.33296e-005
-7.27861e-005
-7.22414e-005
-7.1684e-005
-7.11067e-005
-7.05264e-005
-7.00152e-005
-6.97889e-005
-6.99993e-005
-7.79638e-005
-7.73178e-005
-7.65953e-005
-7.59823e-005
-7.54188e-005
-7.48376e-005
-7.42607e-005
-7.36834e-005
-7.30933e-005
-7.24821e-005
-7.18682e-005
-7.13289e-005
-7.10968e-005
-7.1333e-005
-7.96513e-005
-7.89619e-005
-7.81927e-005
-7.75416e-005
-7.69443e-005
-7.63287e-005
-7.57185e-005
-7.51089e-005
-7.44864e-005
-7.3842e-005
-7.31952e-005
-7.26287e-005
-7.23922e-005
-7.26555e-005
-8.13083e-005
-8.05756e-005
-7.976e-005
-7.90715e-005
-7.84411e-005
-7.77918e-005
-7.71492e-005
-7.65081e-005
-7.58541e-005
-7.51775e-005
-7.44988e-005
-7.39065e-005
-7.36669e-005
-7.39585e-005
-8.29218e-005
-8.21463e-005
-8.12848e-005
-8.05594e-005
-7.9897e-005
-7.92152e-005
-7.85414e-005
-7.78701e-005
-7.71861e-005
-7.64788e-005
-7.57699e-005
-7.51533e-005
-7.49123e-005
-7.5233e-005
-8.44787e-005
-8.36616e-005
-8.27555e-005
-8.19943e-005
-8.13006e-005
-8.05874e-005
-7.98839e-005
-7.9184e-005
-7.84717e-005
-7.77358e-005
-7.69988e-005
-7.63601e-005
-7.61193e-005
-7.64697e-005
-8.59642e-005
-8.51076e-005
-8.41592e-005
-8.3364e-005
-8.26405e-005
-8.18973e-005
-8.11655e-005
-8.04388e-005
-7.97002e-005
-7.89379e-005
-7.81752e-005
-7.75169e-005
-7.72783e-005
-7.76585e-005
-8.73621e-005
-8.64681e-005
-8.548e-005
-8.46533e-005
-8.39025e-005
-8.31318e-005
-8.23739e-005
-8.16227e-005
-8.08604e-005
-8.00743e-005
-7.92888e-005
-7.86135e-005
-7.83791e-005
-7.87889e-005
-8.86577e-005
-8.77292e-005
-8.67041e-005
-8.58485e-005
-8.50731e-005
-8.4278e-005
-8.3497e-005
-8.27242e-005
-8.1941e-005
-8.11343e-005
-8.03292e-005
-7.964e-005
-7.94115e-005
-7.98506e-005
-8.98395e-005
-8.88801e-005
-8.78217e-005
-8.69398e-005
-8.61422e-005
-8.53251e-005
-8.45241e-005
-8.37327e-005
-8.29319e-005
-8.2108e-005
-8.12868e-005
-8.05872e-005
-8.03665e-005
-8.08338e-005
-9.08949e-005
-8.99092e-005
-8.88228e-005
-8.79186e-005
-8.71016e-005
-8.62654e-005
-8.5447e-005
-8.464e-005
-8.38249e-005
-8.29874e-005
-8.2154e-005
-8.14474e-005
-8.12366e-005
-8.17308e-005
-9.18132e-005
-9.08058e-005
-8.96962e-005
-8.87745e-005
-8.79429e-005
-8.70919e-005
-8.62602e-005
-8.54412e-005
-8.46152e-005
-8.3768e-005
-8.29262e-005
-8.22164e-005
-8.20173e-005
-8.25369e-005
-9.25881e-005
-9.15641e-005
-9.04366e-005
-8.95016e-005
-8.86596e-005
-8.77987e-005
-8.69582e-005
-8.6132e-005
-8.53001e-005
-8.44478e-005
-8.36026e-005
-8.28936e-005
-8.27081e-005
-8.32511e-005
-9.32153e-005
-9.21812e-005
-9.10426e-005
-9.00989e-005
-8.92502e-005
-8.83834e-005
-8.75387e-005
-8.67099e-005
-8.58772e-005
-8.50258e-005
-8.41831e-005
-8.34804e-005
-8.33112e-005
-8.38754e-005
-9.36882e-005
-9.26509e-005
-9.15089e-005
-9.05634e-005
-8.97137e-005
-8.88463e-005
-8.80023e-005
-8.71759e-005
-8.63475e-005
-8.55026e-005
-8.46685e-005
-8.39781e-005
-8.38278e-005
-8.44112e-005
-9.40032e-005
-9.29693e-005
-9.1831e-005
-9.089e-005
-9.0046e-005
-8.9185e-005
-8.83481e-005
-8.75303e-005
-8.67122e-005
-8.58797e-005
-8.50601e-005
-8.43869e-005
-8.42578e-005
-8.48573e-005
-9.41639e-005
-9.31408e-005
-9.20135e-005
-9.10824e-005
-9.02487e-005
-8.93993e-005
-8.85753e-005
-8.77717e-005
-8.69699e-005
-8.61558e-005
-8.53564e-005
-8.47049e-005
-8.45978e-005
-8.52096e-005
-9.41722e-005
-9.31682e-005
-9.20607e-005
-9.11463e-005
-9.03279e-005
-8.94948e-005
-8.86877e-005
-8.79025e-005
-8.71211e-005
-8.63297e-005
-8.55551e-005
-8.4929e-005
-8.4844e-005
-8.5463e-005
-9.40281e-005
-9.30511e-005
-9.19724e-005
-9.10816e-005
-9.02844e-005
-8.94734e-005
-8.86883e-005
-8.79258e-005
-8.71687e-005
-8.64038e-005
-8.56574e-005
-8.50594e-005
-8.49956e-005
-8.56167e-005
-9.37345e-005
-9.27926e-005
-9.17511e-005
-9.08906e-005
-9.01205e-005
-8.93368e-005
-8.85788e-005
-8.78434e-005
-8.71148e-005
-8.63803e-005
-8.56661e-005
-8.50991e-005
-8.50556e-005
-8.56733e-005
-9.32995e-005
-9.23999e-005
-9.14033e-005
-9.058e-005
-8.98431e-005
-8.90925e-005
-8.83662e-005
-8.76619e-005
-8.6965e-005
-8.62645e-005
-8.55858e-005
-8.5052e-005
-8.50275e-005
-8.56358e-005
-9.27379e-005
-9.18883e-005
-9.09441e-005
-9.01626e-005
-8.94629e-005
-8.87502e-005
-8.80601e-005
-8.7391e-005
-8.67297e-005
-8.60663e-005
-8.54255e-005
-8.49262e-005
-8.49178e-005
-8.55096e-005
-9.20656e-005
-9.12752e-005
-9.03933e-005
-8.96591e-005
-8.89989e-005
-8.8326e-005
-8.76744e-005
-8.70428e-005
-8.64193e-005
-8.57955e-005
-8.51949e-005
-8.47311e-005
-8.47357e-005
-8.53034e-005
-9.1292e-005
-9.05682e-005
-8.97578e-005
-8.90797e-005
-8.84662e-005
-8.78384e-005
-8.72284e-005
-8.6636e-005
-8.60512e-005
-8.54672e-005
-8.49068e-005
-8.4477e-005
-8.44892e-005
-8.50244e-005
-9.04374e-005
-8.97848e-005
-8.90506e-005
-8.8434e-005
-8.78741e-005
-8.72988e-005
-8.67366e-005
-8.61876e-005
-8.56439e-005
-8.51004e-005
-8.45789e-005
-8.41799e-005
-8.41921e-005
-8.46843e-005
-8.95415e-005
-8.89667e-005
-8.83146e-005
-8.77609e-005
-8.72542e-005
-8.6732e-005
-8.62188e-005
-8.5715e-005
-8.52136e-005
-8.47111e-005
-8.42283e-005
-8.38586e-005
-8.38658e-005
-8.43068e-005
-8.86358e-005
-8.81447e-005
-8.7581e-005
-8.70928e-005
-8.66387e-005
-8.61678e-005
-8.57015e-005
-8.52406e-005
-8.478e-005
-8.43176e-005
-8.38738e-005
-8.35338e-005
-8.35335e-005
-8.39169e-005
-8.77549e-005
-8.73494e-005
-8.68769e-005
-8.64569e-005
-8.60572e-005
-8.56371e-005
-8.52147e-005
-8.47923e-005
-8.43678e-005
-8.39417e-005
-8.3534e-005
-8.32217e-005
-8.32093e-005
-8.35277e-005
-8.69596e-005
-8.66372e-005
-8.6251e-005
-8.58945e-005
-8.55453e-005
-8.51723e-005
-8.4789e-005
-8.43985e-005
-8.40022e-005
-8.3605e-005
-8.32279e-005
-8.29394e-005
-8.29118e-005
-8.31622e-005
-8.63251e-005
-8.60778e-005
-8.57628e-005
-8.54525e-005
-8.51376e-005
-8.4798e-005
-8.44423e-005
-8.40741e-005
-8.36974e-005
-8.33201e-005
-8.2965e-005
-8.2693e-005
-8.2646e-005
-8.28291e-005
-8.59414e-005
-8.5756e-005
-8.54877e-005
-8.51898e-005
-8.4866e-005
-8.4515e-005
-8.41456e-005
-8.37657e-005
-8.33838e-005
-8.30122e-005
-8.26748e-005
-8.2427e-005
-8.23852e-005
-8.25295e-005
-4.50701e-007
-4.51249e-007
-4.51189e-007
-4.51183e-007
-4.5115e-007
-4.51053e-007
-4.50916e-007
-4.50756e-007
-4.50582e-007
-4.50399e-007
-4.50199e-007
-4.49959e-007
-4.49647e-007
-4.49207e-007
-1.37433e-006
-1.37435e-006
-1.37354e-006
-1.37279e-006
-1.37205e-006
-1.37128e-006
-1.37051e-006
-1.36975e-006
-1.36901e-006
-1.3683e-006
-1.36759e-006
-1.36685e-006
-1.36604e-006
-1.36523e-006
-2.32455e-006
-2.32355e-006
-2.32201e-006
-2.32053e-006
-2.31907e-006
-2.31761e-006
-2.31616e-006
-2.31476e-006
-2.3134e-006
-2.31208e-006
-2.31077e-006
-2.30942e-006
-2.30795e-006
-2.30663e-006
-3.27621e-006
-3.27471e-006
-3.27245e-006
-3.27027e-006
-3.26811e-006
-3.26591e-006
-3.26369e-006
-3.26152e-006
-3.25941e-006
-3.25739e-006
-3.2554e-006
-3.25339e-006
-3.25123e-006
-3.24934e-006
-4.23023e-006
-4.22827e-006
-4.22527e-006
-4.22239e-006
-4.21958e-006
-4.21673e-006
-4.21388e-006
-4.21106e-006
-4.20832e-006
-4.20566e-006
-4.20306e-006
-4.20044e-006
-4.19766e-006
-4.19527e-006
-5.18762e-006
-5.18516e-006
-5.18142e-006
-5.17782e-006
-5.17429e-006
-5.17076e-006
-5.16725e-006
-5.1638e-006
-5.16045e-006
-5.15721e-006
-5.15403e-006
-5.15082e-006
-5.14739e-006
-5.14443e-006
-6.1499e-006
-6.14703e-006
-6.14266e-006
-6.13842e-006
-6.13424e-006
-6.13004e-006
-6.12585e-006
-6.12174e-006
-6.11775e-006
-6.11387e-006
-6.11006e-006
-6.10619e-006
-6.10202e-006
-6.09846e-006
-7.11697e-006
-7.11367e-006
-7.10866e-006
-7.10379e-006
-7.09899e-006
-7.09414e-006
-7.0893e-006
-7.08452e-006
-7.07987e-006
-7.07535e-006
-7.07089e-006
-7.06635e-006
-7.06147e-006
-7.05732e-006
-8.08899e-006
-8.08524e-006
-8.07955e-006
-8.07405e-006
-8.06864e-006
-8.06318e-006
-8.05771e-006
-8.05232e-006
-8.04706e-006
-8.04193e-006
-8.03688e-006
-8.03174e-006
-8.02622e-006
-8.02152e-006
-9.06638e-006
-9.06218e-006
-9.05583e-006
-9.04969e-006
-9.04368e-006
-9.03761e-006
-9.03154e-006
-9.02554e-006
-9.01967e-006
-9.01393e-006
-9.00826e-006
-9.00246e-006
-8.99623e-006
-8.99092e-006
-1.00494e-005
-1.00448e-005
-1.00378e-005
-1.00311e-005
-1.00245e-005
-1.00178e-005
-1.00111e-005
-1.00045e-005
-9.99806e-006
-9.99169e-006
-9.98534e-006
-9.97883e-006
-9.97183e-006
-9.96589e-006
-1.10381e-005
-1.10331e-005
-1.10255e-005
-1.10182e-005
-1.1011e-005
-1.10037e-005
-1.09965e-005
-1.09893e-005
-1.09822e-005
-1.09753e-005
-1.09684e-005
-1.09612e-005
-1.09536e-005
-1.09471e-005
-1.20322e-005
-1.20268e-005
-1.20186e-005
-1.20106e-005
-1.20029e-005
-1.19951e-005
-1.19873e-005
-1.19795e-005
-1.19719e-005
-1.19644e-005
-1.1957e-005
-1.19493e-005
-1.19411e-005
-1.19342e-005
-1.30316e-005
-1.30257e-005
-1.30168e-005
-1.30083e-005
-1.3e-005
-1.29916e-005
-1.29832e-005
-1.29749e-005
-1.29667e-005
-1.29586e-005
-1.29506e-005
-1.29423e-005
-1.29335e-005
-1.2926e-005
-1.40362e-005
-1.40299e-005
-1.40204e-005
-1.40112e-005
-1.40023e-005
-1.39933e-005
-1.39843e-005
-1.39754e-005
-1.39666e-005
-1.39578e-005
-1.39491e-005
-1.39402e-005
-1.39307e-005
-1.39226e-005
-1.50458e-005
-1.5039e-005
-1.50288e-005
-1.50191e-005
-1.50096e-005
-1.50001e-005
-1.49905e-005
-1.4981e-005
-1.49715e-005
-1.49621e-005
-1.49528e-005
-1.49433e-005
-1.49333e-005
-1.49247e-005
-1.60598e-005
-1.60525e-005
-1.60417e-005
-1.60314e-005
-1.60213e-005
-1.60112e-005
-1.60011e-005
-1.59911e-005
-1.59811e-005
-1.59712e-005
-1.59614e-005
-1.59514e-005
-1.59409e-005
-1.5932e-005
-1.70778e-005
-1.70701e-005
-1.70586e-005
-1.70476e-005
-1.7037e-005
-1.70264e-005
-1.70157e-005
-1.70051e-005
-1.69946e-005
-1.69842e-005
-1.69739e-005
-1.69635e-005
-1.69525e-005
-1.69433e-005
-1.80992e-005
-1.80911e-005
-1.80789e-005
-1.80673e-005
-1.80561e-005
-1.80449e-005
-1.80337e-005
-1.80225e-005
-1.80114e-005
-1.80005e-005
-1.79896e-005
-1.79787e-005
-1.79673e-005
-1.79577e-005
-1.91237e-005
-1.91151e-005
-1.91022e-005
-1.90899e-005
-1.90781e-005
-1.90663e-005
-1.90544e-005
-1.90427e-005
-1.9031e-005
-1.90195e-005
-1.90081e-005
-1.89966e-005
-1.89848e-005
-1.89749e-005
-2.01509e-005
-2.01417e-005
-2.0128e-005
-2.01151e-005
-2.01026e-005
-2.00901e-005
-2.00777e-005
-2.00653e-005
-2.00531e-005
-2.0041e-005
-2.0029e-005
-2.0017e-005
-2.00048e-005
-1.99947e-005
-2.118e-005
-2.11703e-005
-2.11558e-005
-2.11422e-005
-2.11291e-005
-2.1116e-005
-2.1103e-005
-2.109e-005
-2.10772e-005
-2.10645e-005
-2.1052e-005
-2.10396e-005
-2.10271e-005
-2.10167e-005
-2.22104e-005
-2.22002e-005
-2.2185e-005
-2.21707e-005
-2.21569e-005
-2.21432e-005
-2.21296e-005
-2.21161e-005
-2.21027e-005
-2.20895e-005
-2.20765e-005
-2.20636e-005
-2.20507e-005
-2.204e-005
-2.32416e-005
-2.32309e-005
-2.32149e-005
-2.31998e-005
-2.31854e-005
-2.31711e-005
-2.31569e-005
-2.31428e-005
-2.31289e-005
-2.31151e-005
-2.31016e-005
-2.30882e-005
-2.30748e-005
-2.30639e-005
-2.42727e-005
-2.42614e-005
-2.42446e-005
-2.42288e-005
-2.42138e-005
-2.41989e-005
-2.4184e-005
-2.41693e-005
-2.41548e-005
-2.41404e-005
-2.41263e-005
-2.41124e-005
-2.40986e-005
-2.40872e-005
-2.53028e-005
-2.52909e-005
-2.52733e-005
-2.52567e-005
-2.5241e-005
-2.52254e-005
-2.52099e-005
-2.51946e-005
-2.51794e-005
-2.51644e-005
-2.51498e-005
-2.51354e-005
-2.51208e-005
-2.51091e-005
-2.6331e-005
-2.63184e-005
-2.62999e-005
-2.62826e-005
-2.62661e-005
-2.62498e-005
-2.62336e-005
-2.62176e-005
-2.62018e-005
-2.61861e-005
-2.61708e-005
-2.61558e-005
-2.61406e-005
-2.61284e-005
-2.73562e-005
-2.7343e-005
-2.73236e-005
-2.73054e-005
-2.72882e-005
-2.72711e-005
-2.72541e-005
-2.72374e-005
-2.72208e-005
-2.72045e-005
-2.71885e-005
-2.71727e-005
-2.71569e-005
-2.71441e-005
-2.83776e-005
-2.83637e-005
-2.83433e-005
-2.83243e-005
-2.83062e-005
-2.82882e-005
-2.82705e-005
-2.82529e-005
-2.82356e-005
-2.82186e-005
-2.82019e-005
-2.81854e-005
-2.81687e-005
-2.81553e-005
-2.93944e-005
-2.93797e-005
-2.93582e-005
-2.93382e-005
-2.93192e-005
-2.93004e-005
-2.92818e-005
-2.92634e-005
-2.92453e-005
-2.92274e-005
-2.921e-005
-2.91927e-005
-2.91752e-005
-2.91611e-005
-3.04057e-005
-3.03901e-005
-3.03676e-005
-3.03465e-005
-3.03265e-005
-3.03067e-005
-3.02872e-005
-3.02679e-005
-3.02489e-005
-3.02302e-005
-3.02119e-005
-3.01937e-005
-3.01754e-005
-3.01605e-005
-3.14108e-005
-3.13943e-005
-3.13705e-005
-3.13484e-005
-3.13273e-005
-3.13065e-005
-3.12859e-005
-3.12655e-005
-3.12455e-005
-3.12259e-005
-3.12067e-005
-3.11877e-005
-3.11684e-005
-3.11527e-005
-3.2409e-005
-3.23915e-005
-3.23664e-005
-3.2343e-005
-3.23208e-005
-3.22988e-005
-3.2277e-005
-3.22556e-005
-3.22345e-005
-3.22138e-005
-3.21936e-005
-3.21736e-005
-3.21533e-005
-3.21368e-005
-3.34e-005
-3.33812e-005
-3.33547e-005
-3.333e-005
-3.33064e-005
-3.32831e-005
-3.326e-005
-3.32373e-005
-3.3215e-005
-3.31931e-005
-3.31718e-005
-3.31508e-005
-3.31295e-005
-3.31122e-005
-3.43831e-005
-3.4363e-005
-3.43349e-005
-3.43086e-005
-3.42836e-005
-3.42587e-005
-3.42342e-005
-3.421e-005
-3.41864e-005
-3.41632e-005
-3.41408e-005
-3.41187e-005
-3.40964e-005
-3.40784e-005
-3.53583e-005
-3.53367e-005
-3.53066e-005
-3.52786e-005
-3.52519e-005
-3.52254e-005
-3.51992e-005
-3.51735e-005
-3.51484e-005
-3.51239e-005
-3.51002e-005
-3.50771e-005
-3.50539e-005
-3.50353e-005
-3.63258e-005
-3.63025e-005
-3.62703e-005
-3.62403e-005
-3.62117e-005
-3.61833e-005
-3.61552e-005
-3.61277e-005
-3.61009e-005
-3.6075e-005
-3.605e-005
-3.60258e-005
-3.60019e-005
-3.59829e-005
-3.7286e-005
-3.72608e-005
-3.72261e-005
-3.71939e-005
-3.71632e-005
-3.71326e-005
-3.71024e-005
-3.7073e-005
-3.70443e-005
-3.70167e-005
-3.69903e-005
-3.69651e-005
-3.69405e-005
-3.69214e-005
-3.82399e-005
-3.82124e-005
-3.81749e-005
-3.81402e-005
-3.81071e-005
-3.80741e-005
-3.80415e-005
-3.80098e-005
-3.79792e-005
-3.79497e-005
-3.79218e-005
-3.78955e-005
-3.78704e-005
-3.78513e-005
-3.91886e-005
-3.91585e-005
-3.91179e-005
-3.90804e-005
-3.90444e-005
-3.90086e-005
-3.89734e-005
-3.89392e-005
-3.89062e-005
-3.88747e-005
-3.88452e-005
-3.88178e-005
-3.87923e-005
-3.87733e-005
-4.01335e-005
-4.01005e-005
-4.00563e-005
-4.00155e-005
-3.99764e-005
-3.99375e-005
-3.98993e-005
-3.98622e-005
-3.98266e-005
-3.97928e-005
-3.97614e-005
-3.97328e-005
-3.97071e-005
-3.96885e-005
-4.10762e-005
-4.10398e-005
-4.09915e-005
-4.09471e-005
-4.09045e-005
-4.0862e-005
-4.08203e-005
-4.07801e-005
-4.07415e-005
-4.07052e-005
-4.06719e-005
-4.06421e-005
-4.06162e-005
-4.05982e-005
-4.20187e-005
-4.19784e-005
-4.19255e-005
-4.1877e-005
-4.18304e-005
-4.17839e-005
-4.17383e-005
-4.16945e-005
-4.16527e-005
-4.16136e-005
-4.15781e-005
-4.15472e-005
-4.15213e-005
-4.15043e-005
-4.29632e-005
-4.29185e-005
-4.28605e-005
-4.28073e-005
-4.27562e-005
-4.27051e-005
-4.26553e-005
-4.26074e-005
-4.2562e-005
-4.25198e-005
-4.2482e-005
-4.24499e-005
-4.24243e-005
-4.24085e-005
-4.39122e-005
-4.38625e-005
-4.37986e-005
-4.37402e-005
-4.36841e-005
-4.3628e-005
-4.35733e-005
-4.35209e-005
-4.34715e-005
-4.34258e-005
-4.33856e-005
-4.33523e-005
-4.33273e-005
-4.3313e-005
-4.48684e-005
-4.4813e-005
-4.47425e-005
-4.46783e-005
-4.46165e-005
-4.45548e-005
-4.44946e-005
-4.44372e-005
-4.43833e-005
-4.4334e-005
-4.42911e-005
-4.42566e-005
-4.42325e-005
-4.42202e-005
-4.58346e-005
-4.57727e-005
-4.56948e-005
-4.5624e-005
-4.55559e-005
-4.54878e-005
-4.54216e-005
-4.53586e-005
-4.52998e-005
-4.52464e-005
-4.52007e-005
-4.51652e-005
-4.51423e-005
-4.51326e-005
-4.68137e-005
-4.67445e-005
-4.66582e-005
-4.65801e-005
-4.6505e-005
-4.64298e-005
-4.63568e-005
-4.62877e-005
-4.62234e-005
-4.61656e-005
-4.61168e-005
-4.60803e-005
-4.60591e-005
-4.60524e-005
-4.78091e-005
-4.77316e-005
-4.76359e-005
-4.75496e-005
-4.74665e-005
-4.73834e-005
-4.73029e-005
-4.72269e-005
-4.71567e-005
-4.7094e-005
-4.7042e-005
-4.70046e-005
-4.69854e-005
-4.69826e-005
-4.88238e-005
-4.8737e-005
-4.86307e-005
-4.85353e-005
-4.84434e-005
-4.83515e-005
-4.82627e-005
-4.81791e-005
-4.81023e-005