/*--------------------------------*- C++ -*----------------------------------*\
| =========                 |                                                 |
| \\      /  F ield         | OpenFOAM: The Open Source CFD Toolbox           |
|  \\    /   O peration     | Version:  5.x                                   |
|   \\  /    A nd           | Web:      www.OpenFOAM.org                      |
|    \\/     M anipulation  |                                                 |
\*---------------------------------------------------------------------------*/
/*   Windows 32 and 64 bit porting by blueCAPE: http://www.bluecape.com.pt   *\
|  Based on Windows porting (2.0.x v4) by Symscape: http://www.symscape.com   |
\*---------------------------------------------------------------------------*/
FoamFile
{
    version     2.0;
    format      ascii;
    class       volScalarField;
    location    "1.8";
    object      p;
}
// * * * * * * * * * * * * * * * * * * * * * * * * * * * * * * * * * * * * * //

dimensions      [0 2 -2 0 0 0 0];

internalField   nonuniform List<scalar> 
141075
(
-6.28509e-007
-6.28768e-007
-6.28726e-007
-6.28692e-007
-6.28624e-007
-6.28549e-007
-6.28511e-007
-6.28529e-007
-6.28618e-007
-6.28779e-007
-6.28976e-007
-6.29135e-007
-6.29152e-007
-6.29081e-007
-1.92716e-006
-1.92788e-006
-1.92828e-006
-1.92845e-006
-1.92842e-006
-1.92831e-006
-1.92818e-006
-1.92811e-006
-1.92814e-006
-1.92826e-006
-1.92841e-006
-1.92846e-006
-1.92823e-006
-1.9279e-006
-3.2591e-006
-3.25825e-006
-3.25709e-006
-3.25606e-006
-3.25507e-006
-3.25405e-006
-3.25307e-006
-3.2522e-006
-3.2515e-006
-3.25102e-006
-3.25067e-006
-3.25032e-006
-3.24973e-006
-3.24933e-006
-4.60028e-006
-4.59921e-006
-4.59754e-006
-4.59593e-006
-4.59433e-006
-4.59273e-006
-4.5912e-006
-4.58985e-006
-4.58875e-006
-4.58793e-006
-4.5873e-006
-4.58668e-006
-4.58576e-006
-4.58505e-006
-5.94964e-006
-5.94819e-006
-5.94598e-006
-5.94377e-006
-5.94157e-006
-5.93937e-006
-5.93727e-006
-5.93542e-006
-5.9339e-006
-5.93274e-006
-5.93183e-006
-5.93093e-006
-5.92963e-006
-5.92852e-006
-7.31122e-006
-7.30952e-006
-7.30693e-006
-7.30425e-006
-7.3015e-006
-7.29873e-006
-7.29609e-006
-7.29375e-006
-7.29181e-006
-7.29031e-006
-7.28909e-006
-7.28788e-006
-7.28618e-006
-7.28466e-006
-8.68656e-006
-8.68453e-006
-8.68147e-006
-8.67834e-006
-8.67511e-006
-8.67181e-006
-8.66862e-006
-8.66574e-006
-8.66331e-006
-8.66135e-006
-8.65972e-006
-8.65812e-006
-8.65599e-006
-8.6541e-006
-1.00785e-005
-1.00761e-005
-1.00725e-005
-1.00688e-005
-1.00651e-005
-1.00614e-005
-1.00577e-005
-1.00543e-005
-1.00514e-005
-1.0049e-005
-1.0047e-005
-1.0045e-005
-1.00423e-005
-1.004e-005
-1.14893e-005
-1.14865e-005
-1.14824e-005
-1.14783e-005
-1.1474e-005
-1.14697e-005
-1.14654e-005
-1.14615e-005
-1.14582e-005
-1.14553e-005
-1.14528e-005
-1.14504e-005
-1.14472e-005
-1.14445e-005
-1.29208e-005
-1.29178e-005
-1.29132e-005
-1.29086e-005
-1.29037e-005
-1.28988e-005
-1.2894e-005
-1.28895e-005
-1.28856e-005
-1.28822e-005
-1.28793e-005
-1.28764e-005
-1.28727e-005
-1.28695e-005
-1.43748e-005
-1.43714e-005
-1.43664e-005
-1.43612e-005
-1.43559e-005
-1.43505e-005
-1.43451e-005
-1.43401e-005
-1.43356e-005
-1.43318e-005
-1.43283e-005
-1.43248e-005
-1.43204e-005
-1.43166e-005
-1.58529e-005
-1.58491e-005
-1.58436e-005
-1.5838e-005
-1.58322e-005
-1.58262e-005
-1.58203e-005
-1.58148e-005
-1.58098e-005
-1.58053e-005
-1.58013e-005
-1.57971e-005
-1.57921e-005
-1.57877e-005
-1.73567e-005
-1.73526e-005
-1.73465e-005
-1.73403e-005
-1.7334e-005
-1.73275e-005
-1.7321e-005
-1.7315e-005
-1.73094e-005
-1.73044e-005
-1.72996e-005
-1.72947e-005
-1.72889e-005
-1.72839e-005
-1.88877e-005
-1.88832e-005
-1.88766e-005
-1.887e-005
-1.88631e-005
-1.88559e-005
-1.88488e-005
-1.8842e-005
-1.88357e-005
-1.88299e-005
-1.88244e-005
-1.88188e-005
-1.88121e-005
-1.88065e-005
-2.04469e-005
-2.04421e-005
-2.0435e-005
-2.04278e-005
-2.04204e-005
-2.04126e-005
-2.04048e-005
-2.03973e-005
-2.03902e-005
-2.03836e-005
-2.03773e-005
-2.03707e-005
-2.03632e-005
-2.03569e-005
-2.20356e-005
-2.20303e-005
-2.20227e-005
-2.2015e-005
-2.20069e-005
-2.19985e-005
-2.19901e-005
-2.19818e-005
-2.19739e-005
-2.19665e-005
-2.19592e-005
-2.19518e-005
-2.19434e-005
-2.19363e-005
-2.36547e-005
-2.36489e-005
-2.36406e-005
-2.36323e-005
-2.36237e-005
-2.36147e-005
-2.36055e-005
-2.35965e-005
-2.35878e-005
-2.35795e-005
-2.35713e-005
-2.35629e-005
-2.35536e-005
-2.35458e-005
-2.53051e-005
-2.52988e-005
-2.52899e-005
-2.52809e-005
-2.52717e-005
-2.52619e-005
-2.5252e-005
-2.52422e-005
-2.52326e-005
-2.52233e-005
-2.52142e-005
-2.52048e-005
-2.51946e-005
-2.51861e-005
-2.69878e-005
-2.69809e-005
-2.69713e-005
-2.69616e-005
-2.69517e-005
-2.69411e-005
-2.69303e-005
-2.69196e-005
-2.6909e-005
-2.68988e-005
-2.68885e-005
-2.68781e-005
-2.6867e-005
-2.68578e-005
-2.87036e-005
-2.8696e-005
-2.86856e-005
-2.86751e-005
-2.86644e-005
-2.8653e-005
-2.86413e-005
-2.86295e-005
-2.86179e-005
-2.86064e-005
-2.8595e-005
-2.85835e-005
-2.85714e-005
-2.85617e-005
-3.04534e-005
-3.0445e-005
-3.04336e-005
-3.04222e-005
-3.04106e-005
-3.03982e-005
-3.03855e-005
-3.03726e-005
-3.03598e-005
-3.0347e-005
-3.03343e-005
-3.03216e-005
-3.03086e-005
-3.02985e-005
-3.22381e-005
-3.22288e-005
-3.22162e-005
-3.22038e-005
-3.21912e-005
-3.21777e-005
-3.21638e-005
-3.21497e-005
-3.21355e-005
-3.21214e-005
-3.21073e-005
-3.20932e-005
-3.20794e-005
-3.2069e-005
-3.40585e-005
-3.40482e-005
-3.40343e-005
-3.40207e-005
-3.40069e-005
-3.39922e-005
-3.3977e-005
-3.39616e-005
-3.39459e-005
-3.39303e-005
-3.39146e-005
-3.38993e-005
-3.38847e-005
-3.38742e-005
-3.59156e-005
-3.5904e-005
-3.58887e-005
-3.58737e-005
-3.58586e-005
-3.58426e-005
-3.58259e-005
-3.5809e-005
-3.57917e-005
-3.57744e-005
-3.57571e-005
-3.57404e-005
-3.57251e-005
-3.57147e-005
-3.78103e-005
-3.77973e-005
-3.77802e-005
-3.77637e-005
-3.77471e-005
-3.77295e-005
-3.77113e-005
-3.76926e-005
-3.76737e-005
-3.76545e-005
-3.76355e-005
-3.76172e-005
-3.76012e-005
-3.75911e-005
-3.97437e-005
-3.9729e-005
-3.97099e-005
-3.96917e-005
-3.96734e-005
-3.9654e-005
-3.9634e-005
-3.96135e-005
-3.95926e-005
-3.95714e-005
-3.95504e-005
-3.95304e-005
-3.95137e-005
-3.9504e-005
-4.17169e-005
-4.17003e-005
-4.16789e-005
-4.16587e-005
-4.16385e-005
-4.16172e-005
-4.15951e-005
-4.15725e-005
-4.15494e-005
-4.1526e-005
-4.15028e-005
-4.1481e-005
-4.14635e-005
-4.14544e-005
-4.37308e-005
-4.3712e-005
-4.36881e-005
-4.36656e-005
-4.36434e-005
-4.36198e-005
-4.35955e-005
-4.35705e-005
-4.35451e-005
-4.35192e-005
-4.34936e-005
-4.34698e-005
-4.34514e-005
-4.34428e-005
-4.57866e-005
-4.57653e-005
-4.57385e-005
-4.57136e-005
-4.56889e-005
-4.56628e-005
-4.56359e-005
-4.56084e-005
-4.55803e-005
-4.55517e-005
-4.55235e-005
-4.54974e-005
-4.54779e-005
-4.54698e-005
-4.78852e-005
-4.78609e-005
-4.7831e-005
-4.78032e-005
-4.77759e-005
-4.77469e-005
-4.77172e-005
-4.76868e-005
-4.76557e-005
-4.7624e-005
-4.75929e-005
-4.75643e-005
-4.75436e-005
-4.75359e-005
-5.00275e-005
-5e-005
-4.99664e-005
-4.99354e-005
-4.9905e-005
-4.98729e-005
-4.984e-005
-4.98063e-005
-4.97718e-005
-4.97369e-005
-4.97025e-005
-4.9671e-005
-4.96487e-005
-4.96415e-005
-5.22143e-005
-5.2183e-005
-5.21453e-005
-5.21107e-005
-5.20769e-005
-5.20411e-005
-5.20045e-005
-5.19671e-005
-5.1929e-005
-5.18903e-005
-5.18522e-005
-5.18175e-005
-5.17934e-005
-5.17864e-005
-5.4446e-005
-5.44104e-005
-5.43681e-005
-5.43294e-005
-5.42917e-005
-5.42517e-005
-5.4211e-005
-5.41695e-005
-5.41272e-005
-5.40843e-005
-5.40421e-005
-5.40037e-005
-5.39774e-005
-5.39707e-005
-5.67234e-005
-5.66829e-005
-5.66352e-005
-5.65919e-005
-5.65497e-005
-5.65051e-005
-5.64597e-005
-5.64135e-005
-5.63666e-005
-5.6319e-005
-5.62721e-005
-5.62296e-005
-5.62008e-005
-5.61943e-005
-5.90473e-005
-5.9001e-005
-5.89473e-005
-5.88987e-005
-5.88515e-005
-5.88016e-005
-5.87508e-005
-5.86994e-005
-5.86471e-005
-5.85943e-005
-5.85422e-005
-5.84949e-005
-5.84632e-005
-5.84569e-005
-6.14182e-005
-6.13654e-005
-6.13049e-005
-6.12503e-005
-6.11974e-005
-6.11414e-005
-6.10846e-005
-6.10272e-005
-6.0969e-005
-6.09102e-005
-6.08522e-005
-6.07996e-005
-6.07646e-005
-6.07584e-005
-6.38367e-005
-6.37765e-005
-6.37082e-005
-6.36469e-005
-6.35876e-005
-6.35248e-005
-6.34612e-005
-6.3397e-005
-6.33322e-005
-6.32666e-005
-6.3202e-005
-6.31433e-005
-6.31046e-005
-6.30985e-005
-6.63035e-005
-6.62348e-005
-6.61577e-005
-6.60889e-005
-6.60224e-005
-6.59519e-005
-6.58806e-005
-6.58089e-005
-6.57364e-005
-6.56632e-005
-6.55911e-005
-6.55255e-005
-6.54827e-005
-6.54767e-005
-6.88193e-005
-6.87409e-005
-6.86539e-005
-6.85764e-005
-6.85018e-005
-6.84226e-005
-6.83426e-005
-6.82623e-005
-6.81813e-005
-6.80994e-005
-6.80187e-005
-6.79455e-005
-6.78981e-005
-6.78923e-005
-7.13847e-005
-7.12954e-005
-7.11971e-005
-7.11098e-005
-7.10258e-005
-7.09367e-005
-7.08469e-005
-7.07569e-005
-7.06662e-005
-7.05746e-005
-7.04842e-005
-7.04024e-005
-7.03499e-005
-7.03448e-005
-7.39999e-005
-7.3898e-005
-7.3787e-005
-7.36887e-005
-7.35944e-005
-7.34941e-005
-7.33932e-005
-7.32922e-005
-7.31906e-005
-7.30879e-005
-7.29868e-005
-7.28953e-005
-7.28375e-005
-7.28337e-005
-7.66653e-005
-7.65493e-005
-7.64238e-005
-7.63132e-005
-7.62072e-005
-7.60945e-005
-7.59812e-005
-7.5868e-005
-7.5754e-005
-7.5639e-005
-7.55258e-005
-7.54236e-005
-7.53602e-005
-7.53586e-005
-7.93826e-005
-7.92506e-005
-7.91087e-005
-7.89841e-005
-7.8865e-005
-7.87383e-005
-7.86112e-005
-7.84842e-005
-7.83566e-005
-7.82278e-005
-7.8101e-005
-7.79869e-005
-7.79177e-005
-7.79191e-005
-8.21533e-005
-8.20034e-005
-8.18431e-005
-8.17028e-005
-8.15689e-005
-8.14265e-005
-8.12838e-005
-8.11415e-005
-8.09986e-005
-8.08544e-005
-8.07125e-005
-8.05853e-005
-8.05099e-005
-8.05152e-005
-8.49783e-005
-8.48084e-005
-8.46276e-005
-8.44699e-005
-8.43196e-005
-8.41598e-005
-8.39998e-005
-8.38404e-005
-8.36804e-005
-8.3519e-005
-8.33603e-005
-8.32186e-005
-8.31366e-005
-8.31468e-005
-8.7859e-005
-8.76666e-005
-8.74629e-005
-8.72859e-005
-8.71176e-005
-8.69385e-005
-8.67594e-005
-8.65811e-005
-8.64022e-005
-8.62218e-005
-8.60445e-005
-8.58868e-005
-8.57978e-005
-8.58138e-005
-9.07972e-005
-9.05799e-005
-9.03507e-005
-9.01522e-005
-8.99639e-005
-8.97636e-005
-8.95634e-005
-8.93644e-005
-8.91647e-005
-8.89633e-005
-8.87654e-005
-8.85901e-005
-8.84936e-005
-8.85165e-005
-9.3795e-005
-9.35502e-005
-9.32928e-005
-9.30707e-005
-9.28602e-005
-9.26363e-005
-9.24129e-005
-9.2191e-005
-9.19685e-005
-9.1744e-005
-9.15237e-005
-9.13291e-005
-9.12245e-005
-9.12551e-005
-9.68533e-005
-9.6578e-005
-9.62899e-005
-9.60418e-005
-9.58072e-005
-9.55576e-005
-9.53088e-005
-9.50619e-005
-9.48143e-005
-9.45647e-005
-9.43198e-005
-9.41041e-005
-9.39908e-005
-9.40301e-005
-9.99726e-005
-9.96639e-005
-9.93419e-005
-9.90656e-005
-9.88048e-005
-9.85273e-005
-9.82509e-005
-9.79768e-005
-9.77021e-005
-9.74251e-005
-9.71535e-005
-9.69149e-005
-9.67923e-005
-9.68413e-005
-0.000103154
-0.000102808
-0.000102449
-0.000102142
-0.000101853
-0.000101545
-0.000101239
-0.000100935
-0.000100631
-0.000100325
-0.000100024
-9.97611e-005
-9.96285e-005
-9.96884e-005
-0.000106396
-0.000106011
-0.000105612
-0.000105271
-0.000104951
-0.00010461
-0.000104272
-0.000103937
-0.000103601
-0.000103263
-0.000102931
-0.000102642
-0.000102499
-0.00010257
-0.0001097
-0.000109271
-0.000108828
-0.000108452
-0.000108098
-0.000107722
-0.000107349
-0.00010698
-0.00010661
-0.000106238
-0.000105873
-0.000105555
-0.000105401
-0.000105486
-0.000113062
-0.000112586
-0.000112097
-0.000111681
-0.000111292
-0.000110878
-0.000110467
-0.000110062
-0.000109656
-0.000109247
-0.000108847
-0.000108499
-0.000108334
-0.000108433
-0.000116479
-0.000115953
-0.000115413
-0.000114957
-0.000114529
-0.000114074
-0.000113624
-0.00011318
-0.000112735
-0.000112288
-0.00011185
-0.00011147
-0.000111293
-0.000111408
-0.000119949
-0.000119368
-0.000118775
-0.000118274
-0.000117806
-0.000117308
-0.000116815
-0.00011633
-0.000115845
-0.000115356
-0.000114879
-0.000114465
-0.000114276
-0.000114408
-0.000123465
-0.000122827
-0.000122176
-0.000121628
-0.000121116
-0.000120573
-0.000120036
-0.000119507
-0.000118979
-0.000118447
-0.000117928
-0.000117479
-0.000117277
-0.000117429
-0.000127023
-0.000126323
-0.000125611
-0.000125013
-0.000124456
-0.000123865
-0.000123281
-0.000122706
-0.000122133
-0.000121557
-0.000120994
-0.000120509
-0.000120293
-0.000120466
-0.000130613
-0.000129848
-0.000129072
-0.000128422
-0.000127817
-0.000127175
-0.000126541
-0.000125919
-0.000125299
-0.000124675
-0.000124067
-0.000123544
-0.000123316
-0.000123511
-0.000134227
-0.000133394
-0.00013255
-0.000131845
-0.00013119
-0.000130495
-0.00012981
-0.000129138
-0.000128469
-0.000127797
-0.000127142
-0.000126579
-0.000126339
-0.000126559
-0.000137855
-0.000136949
-0.000136035
-0.000135273
-0.000134566
-0.000133816
-0.000133078
-0.000132355
-0.000131635
-0.000130913
-0.000130209
-0.000129607
-0.000129355
-0.000129602
-0.000141486
-0.000140505
-0.000139517
-0.000138695
-0.000137935
-0.000137128
-0.000136335
-0.000135559
-0.000134788
-0.000134014
-0.000133261
-0.000132618
-0.000132355
-0.000132631
-0.000145107
-0.000144049
-0.000142985
-0.000142102
-0.000141285
-0.00014042
-0.000139571
-0.000138741
-0.000137917
-0.000137091
-0.000136288
-0.000135603
-0.00013533
-0.000135637
-0.000148706
-0.000147569
-0.000146427
-0.00014548
-0.000144607
-0.000143681
-0.000142775
-0.000141889
-0.000141012
-0.000140133
-0.000139279
-0.000138554
-0.00013827
-0.00013861
-0.000152268
-0.000151048
-0.000149826
-0.000148816
-0.000147885
-0.000146899
-0.000145934
-0.000144993
-0.000144062
-0.00014313
-0.000142225
-0.000141458
-0.000141166
-0.00014154
-0.000155776
-0.000154474
-0.000153171
-0.000152095
-0.000151106
-0.000150059
-0.000149036
-0.000148039
-0.000147054
-0.000146069
-0.000145113
-0.000144306
-0.000144006
-0.000144415
-0.000159216
-0.00015783
-0.000156445
-0.000155304
-0.000154257
-0.000153149
-0.000152067
-0.000151015
-0.000149976
-0.000148938
-0.000147932
-0.000147085
-0.00014678
-0.000147225
-0.000162569
-0.0001611
-0.000159633
-0.000158427
-0.000157321
-0.000156152
-0.000155013
-0.000153906
-0.000152814
-0.000151725
-0.00015067
-0.000149785
-0.000149475
-0.000149958
-0.000165816
-0.000164264
-0.000162716
-0.000161446
-0.000160283
-0.000159054
-0.000157858
-0.000156698
-0.000155555
-0.000154416
-0.000153314
-0.000152392
-0.000152079
-0.000152602
-0.000168938
-0.000167304
-0.000165677
-0.000164344
-0.000163126
-0.000161839
-0.000160588
-0.000159377
-0.000158185
-0.000156998
-0.000155851
-0.000154895
-0.000154582
-0.000155143
-0.000171915
-0.000170202
-0.000168498
-0.000167104
-0.000165833
-0.000164491
-0.000163187
-0.000161927
-0.000160689
-0.000159457
-0.000158269
-0.000157281
-0.000156969
-0.000157571
-0.000174726
-0.000172938
-0.00017116
-0.000169708
-0.000168386
-0.000166991
-0.000165638
-0.000164332
-0.000163051
-0.000161778
-0.000160551
-0.000159536
-0.000159228
-0.00015987
-0.000177351
-0.000175491
-0.000173643
-0.000172137
-0.000170768
-0.000169324
-0.000167925
-0.000166577
-0.000165257
-0.000163946
-0.000162686
-0.000161646
-0.000161344
-0.000162026
-0.000179766
-0.00017784
-0.000175928
-0.000174372
-0.000172959
-0.000171471
-0.000170031
-0.000168645
-0.00016729
-0.000165947
-0.000164657
-0.000163598
-0.000163305
-0.000164026
-0.000181951
-0.000179965
-0.000177995
-0.000176394
-0.000174943
-0.000173414
-0.000171938
-0.00017052
-0.000169135
-0.000167765
-0.000166451
-0.000165377
-0.000165096
-0.000165856
-0.000183887
-0.000181848
-0.000179825
-0.000178185
-0.0001767
-0.000175137
-0.00017363
-0.000172185
-0.000170776
-0.000169384
-0.000168052
-0.000166968
-0.000166703
-0.0001675
-0.000185556
-0.000183472
-0.000181405
-0.000179731
-0.000178218
-0.000176626
-0.000175094
-0.000173627
-0.0001722
-0.000170793
-0.000169448
-0.00016836
-0.000168113
-0.000168946
-0.00018694
-0.00018482
-0.000182719
-0.000181019
-0.000179484
-0.00017787
-0.000176318
-0.000174835
-0.000173395
-0.000171979
-0.000170628
-0.000169542
-0.000169315
-0.000170181
-0.000188028
-0.000185881
-0.000183754
-0.000182035
-0.000180486
-0.000178858
-0.000177295
-0.000175803
-0.000174357
-0.000172937
-0.000171587
-0.000170506
-0.000170302
-0.0001712
-0.000188818
-0.000186656
-0.000184512
-0.000182782
-0.000181225
-0.00017959
-0.000178021
-0.000176528
-0.000175083
-0.000173667
-0.000172323
-0.000171255
-0.000171075
-0.000172001
-0.00018931
-0.000187144
-0.000184996
-0.000183264
-0.000181706
-0.00018007
-0.000178504
-0.000177015
-0.000175578
-0.000174173
-0.000172843
-0.000171792
-0.00017164
-0.00017259
-0.000189502
-0.000187344
-0.000185204
-0.000183481
-0.000181931
-0.000180305
-0.00017875
-0.000177274
-0.000175853
-0.000174466
-0.000173157
-0.000172132
-0.000172009
-0.000172981
-0.000189397
-0.00018726
-0.00018514
-0.000183434
-0.000181904
-0.000180298
-0.000178763
-0.000177311
-0.000175915
-0.000174557
-0.000173279
-0.000172286
-0.000172196
-0.000173184
-0.000189007
-0.000186904
-0.000184817
-0.00018314
-0.000181637
-0.00018006
-0.000178556
-0.000177135
-0.000175774
-0.000174453
-0.000173215
-0.000172262
-0.000172205
-0.000173205
-0.000188345
-0.000186289
-0.000184249
-0.00018261
-0.000181143
-0.000179606
-0.000178142
-0.000176761
-0.000175442
-0.000174165
-0.000172972
-0.000172064
-0.000172041
-0.000173046
-0.000187427
-0.000185434
-0.000183454
-0.000181863
-0.00018044
-0.00017895
-0.000177533
-0.000176199
-0.000174927
-0.000173701
-0.000172558
-0.000171697
-0.000171704
-0.000172706
-0.000186265
-0.000184349
-0.000182443
-0.000180912
-0.000179542
-0.000178107
-0.000176743
-0.000175462
-0.000174243
-0.00017307
-0.000171981
-0.000171168
-0.000171203
-0.000172193
-0.000184872
-0.000183045
-0.000181225
-0.000179765
-0.000178458
-0.000177088
-0.000175787
-0.000174564
-0.000173402
-0.000172287
-0.000171255
-0.000170492
-0.00017055
-0.00017152
-0.000183279
-0.000181555
-0.000179835
-0.000178452
-0.000177215
-0.000175917
-0.000174683
-0.000173525
-0.000172425
-0.000171371
-0.000170398
-0.000169685
-0.000169761
-0.000170701
-0.000181512
-0.000179903
-0.000178294
-0.000176997
-0.000175835
-0.000174616
-0.000173455
-0.000172365
-0.000171332
-0.000170342
-0.000169431
-0.000168768
-0.000168857
-0.000169757
-0.000179603
-0.000178122
-0.000176638
-0.000175436
-0.000174355
-0.000173219
-0.000172136
-0.000171118
-0.000170151
-0.000169227
-0.000168378
-0.000167765
-0.00016786
-0.000168708
-0.000177586
-0.000176245
-0.000174897
-0.0001738
-0.000172808
-0.000171762
-0.000170761
-0.000169817
-0.000168919
-0.00016806
-0.000167271
-0.000166702
-0.000166794
-0.000167577
-0.000175503
-0.000174312
-0.000173109
-0.000172125
-0.000171227
-0.000170278
-0.000169364
-0.000168497
-0.00016767
-0.000166875
-0.000166142
-0.000165611
-0.000165687
-0.000166391
-0.000173411
-0.000172378
-0.00017133
-0.000170463
-0.000169665
-0.000168815
-0.000167991
-0.000167202
-0.000166443
-0.000165709
-0.00016503
-0.000164533
-0.000164585
-0.000165199
-0.00017138
-0.000170511
-0.000169618
-0.000168865
-0.000168163
-0.000167413
-0.000166678
-0.000165967
-0.000165275
-0.000164602
-0.000163975
-0.000163511
-0.000163535
-0.00016405
-0.000169487
-0.000168791
-0.000168064
-0.000167427
-0.000166813
-0.000166149
-0.00016549
-0.000164843
-0.000164209
-0.000163589
-0.00016301
-0.000162576
-0.000162568
-0.000162977
-0.000167809
-0.000167277
-0.000166705
-0.000166179
-0.000165655
-0.000165077
-0.000164486
-0.000163892
-0.000163301
-0.00016272
-0.000162179
-0.000161769
-0.000161725
-0.000162027
-0.0001665
-0.000166118
-0.000165671
-0.000165222
-0.000164756
-0.000164238
-0.000163694
-0.000163134
-0.000162567
-0.000162008
-0.000161489
-0.000161092
-0.00016101
-0.000161213
-0.000165723
-0.000165464
-0.000165106
-0.000164685
-0.000164209
-0.000163684
-0.000163128
-0.000162555
-0.000161981
-0.000161424
-0.000160921
-0.00016055
-0.000160477
-0.000160641
-6.28051e-007
-6.28469e-007
-6.28667e-007
-6.28752e-007
-6.28719e-007
-6.28627e-007
-6.28531e-007
-6.28464e-007
-6.28446e-007
-6.28476e-007
-6.28523e-007
-6.28509e-007
-6.28309e-007
-6.27959e-007
-1.92569e-006
-1.92653e-006
-1.92704e-006
-1.92732e-006
-1.92738e-006
-1.92729e-006
-1.92712e-006
-1.92694e-006
-1.92681e-006
-1.92672e-006
-1.92664e-006
-1.92647e-006
-1.92603e-006
-1.92545e-006
-3.25801e-006
-3.25729e-006
-3.25625e-006
-3.25526e-006
-3.25424e-006
-3.25317e-006
-3.25209e-006
-3.25107e-006
-3.25016e-006
-3.24938e-006
-3.24871e-006
-3.24804e-006
-3.24721e-006
-3.24656e-006
-4.59893e-006
-4.598e-006
-4.5965e-006
-4.59493e-006
-4.59328e-006
-4.59156e-006
-4.58985e-006
-4.58825e-006
-4.58683e-006
-4.58562e-006
-4.58457e-006
-4.58354e-006
-4.58234e-006
-4.58141e-006
-5.94778e-006
-5.94649e-006
-5.94452e-006
-5.94242e-006
-5.94018e-006
-5.93783e-006
-5.93551e-006
-5.93334e-006
-5.9314e-006
-5.92974e-006
-5.92828e-006
-5.92687e-006
-5.92525e-006
-5.92395e-006
-7.30869e-006
-7.30717e-006
-7.30482e-006
-7.30229e-006
-7.29956e-006
-7.29667e-006
-7.2938e-006
-7.29108e-006
-7.28865e-006
-7.28653e-006
-7.28465e-006
-7.28283e-006
-7.28076e-006
-7.27906e-006
-8.68339e-006
-8.68157e-006
-8.67875e-006
-8.67575e-006
-8.67252e-006
-8.6691e-006
-8.66566e-006
-8.66238e-006
-8.65939e-006
-8.65674e-006
-8.65433e-006
-8.65204e-006
-8.64952e-006
-8.64733e-006
-1.00746e-005
-1.00725e-005
-1.00692e-005
-1.00657e-005
-1.00619e-005
-1.00579e-005
-1.0054e-005
-1.00501e-005
-1.00466e-005
-1.00435e-005
-1.00406e-005
-1.00378e-005
-1.00346e-005
-1.0032e-005
-1.14845e-005
-1.1482e-005
-1.14783e-005
-1.14743e-005
-1.147e-005
-1.14655e-005
-1.14609e-005
-1.14565e-005
-1.14524e-005
-1.14487e-005
-1.14453e-005
-1.1442e-005
-1.14383e-005
-1.14352e-005
-1.29148e-005
-1.29121e-005
-1.2908e-005
-1.29035e-005
-1.28987e-005
-1.28936e-005
-1.28885e-005
-1.28835e-005
-1.28788e-005
-1.28745e-005
-1.28706e-005
-1.28667e-005
-1.28624e-005
-1.28588e-005
-1.43676e-005
-1.43645e-005
-1.43599e-005
-1.4355e-005
-1.43497e-005
-1.43441e-005
-1.43384e-005
-1.43329e-005
-1.43277e-005
-1.43228e-005
-1.43183e-005
-1.43138e-005
-1.43087e-005
-1.43045e-005
-1.58444e-005
-1.5841e-005
-1.58359e-005
-1.58305e-005
-1.58247e-005
-1.58186e-005
-1.58123e-005
-1.58062e-005
-1.58005e-005
-1.57951e-005
-1.57899e-005
-1.57847e-005
-1.57789e-005
-1.57741e-005
-1.73467e-005
-1.73431e-005
-1.73375e-005
-1.73316e-005
-1.73253e-005
-1.73186e-005
-1.73117e-005
-1.73051e-005
-1.72987e-005
-1.72926e-005
-1.72867e-005
-1.72808e-005
-1.72743e-005
-1.72688e-005
-1.8876e-005
-1.8872e-005
-1.88659e-005
-1.88596e-005
-1.88527e-005
-1.88454e-005
-1.8838e-005
-1.88306e-005
-1.88235e-005
-1.88167e-005
-1.88102e-005
-1.88035e-005
-1.87962e-005
-1.87901e-005
-2.04336e-005
-2.04292e-005
-2.04227e-005
-2.04158e-005
-2.04083e-005
-2.04005e-005
-2.03923e-005
-2.03843e-005
-2.03765e-005
-2.0369e-005
-2.03616e-005
-2.03541e-005
-2.0346e-005
-2.03392e-005
-2.20205e-005
-2.20156e-005
-2.20086e-005
-2.20012e-005
-2.19932e-005
-2.19847e-005
-2.19759e-005
-2.19672e-005
-2.19586e-005
-2.19503e-005
-2.19422e-005
-2.19339e-005
-2.19249e-005
-2.19175e-005
-2.36376e-005
-2.36323e-005
-2.36246e-005
-2.36167e-005
-2.36081e-005
-2.3599e-005
-2.35896e-005
-2.35802e-005
-2.35709e-005
-2.35618e-005
-2.35528e-005
-2.35437e-005
-2.3534e-005
-2.35259e-005
-2.5286e-005
-2.52802e-005
-2.52719e-005
-2.52633e-005
-2.52541e-005
-2.52443e-005
-2.52342e-005
-2.5224e-005
-2.52139e-005
-2.52041e-005
-2.51943e-005
-2.51845e-005
-2.5174e-005
-2.51654e-005
-2.69665e-005
-2.69601e-005
-2.69511e-005
-2.69419e-005
-2.6932e-005
-2.69215e-005
-2.69106e-005
-2.68996e-005
-2.68887e-005
-2.6878e-005
-2.68674e-005
-2.68568e-005
-2.68456e-005
-2.68365e-005
-2.868e-005
-2.86729e-005
-2.86631e-005
-2.86531e-005
-2.86425e-005
-2.86312e-005
-2.86195e-005
-2.86077e-005
-2.85959e-005
-2.85843e-005
-2.85728e-005
-2.85614e-005
-2.85496e-005
-2.85401e-005
-3.04273e-005
-3.04194e-005
-3.04087e-005
-3.03978e-005
-3.03864e-005
-3.03742e-005
-3.03616e-005
-3.03488e-005
-3.03361e-005
-3.03236e-005
-3.03112e-005
-3.02991e-005
-3.02868e-005
-3.02769e-005
-3.22092e-005
-3.22005e-005
-3.21886e-005
-3.21768e-005
-3.21644e-005
-3.21513e-005
-3.21376e-005
-3.21239e-005
-3.21101e-005
-3.20966e-005
-3.20834e-005
-3.20706e-005
-3.20579e-005
-3.20478e-005
-3.40266e-005
-3.40167e-005
-3.40036e-005
-3.39907e-005
-3.39773e-005
-3.3963e-005
-3.39483e-005
-3.39335e-005
-3.39187e-005
-3.39041e-005
-3.38901e-005
-3.38766e-005
-3.38637e-005
-3.38536e-005
-3.58801e-005
-3.58691e-005
-3.58545e-005
-3.58403e-005
-3.58256e-005
-3.58102e-005
-3.57943e-005
-3.57783e-005
-3.57624e-005
-3.57468e-005
-3.5732e-005
-3.5718e-005
-3.5705e-005
-3.56951e-005
-3.77708e-005
-3.77583e-005
-3.77421e-005
-3.77264e-005
-3.77103e-005
-3.76935e-005
-3.76762e-005
-3.76589e-005
-3.76419e-005
-3.76253e-005
-3.76096e-005
-3.75951e-005
-3.75822e-005
-3.75726e-005
-3.96994e-005
-3.96853e-005
-3.96671e-005
-3.96498e-005
-3.96322e-005
-3.96137e-005
-3.9595e-005
-3.95763e-005
-3.95579e-005
-3.95401e-005
-3.95236e-005
-3.95087e-005
-3.94959e-005
-3.94868e-005
-4.16669e-005
-4.16509e-005
-4.16306e-005
-4.16113e-005
-4.15919e-005
-4.15717e-005
-4.15512e-005
-4.1531e-005
-4.15112e-005
-4.14922e-005
-4.14747e-005
-4.14594e-005
-4.14468e-005
-4.14383e-005
-4.36742e-005
-4.36561e-005
-4.36332e-005
-4.36119e-005
-4.35904e-005
-4.35682e-005
-4.35458e-005
-4.35238e-005
-4.35024e-005
-4.34821e-005
-4.34636e-005
-4.34479e-005
-4.34356e-005
-4.34277e-005
-4.57221e-005
-4.57015e-005
-4.56759e-005
-4.56521e-005
-4.56284e-005
-4.56039e-005
-4.55794e-005
-4.55554e-005
-4.55322e-005
-4.55104e-005
-4.54908e-005
-4.54746e-005
-4.54626e-005
-4.54555e-005
-4.78114e-005
-4.77879e-005
-4.77591e-005
-4.77327e-005
-4.77064e-005
-4.76793e-005
-4.76524e-005
-4.76262e-005
-4.7601e-005
-4.75775e-005
-4.75568e-005
-4.754e-005
-4.75283e-005
-4.7522e-005
-4.99428e-005
-4.9916e-005
-4.98837e-005
-4.98542e-005
-4.9825e-005
-4.9795e-005
-4.97653e-005
-4.97365e-005
-4.97092e-005
-4.96839e-005
-4.96618e-005
-4.96444e-005
-4.96331e-005
-4.96275e-005
-5.21167e-005
-5.20862e-005
-5.20498e-005
-5.2017e-005
-5.19844e-005
-5.1951e-005
-5.19182e-005
-5.18866e-005
-5.18567e-005
-5.18293e-005
-5.18059e-005
-5.17879e-005
-5.17768e-005
-5.17721e-005
-5.43336e-005
-5.42988e-005
-5.42579e-005
-5.42211e-005
-5.41848e-005
-5.41476e-005
-5.41111e-005
-5.40763e-005
-5.40436e-005
-5.40139e-005
-5.39888e-005
-5.39702e-005
-5.39595e-005
-5.39558e-005
-5.6594e-005
-5.65543e-005
-5.6508e-005
-5.64668e-005
-5.64262e-005
-5.63846e-005
-5.63441e-005
-5.63056e-005
-5.62697e-005
-5.62375e-005
-5.62107e-005
-5.61914e-005
-5.61812e-005
-5.61787e-005
-5.88982e-005
-5.88529e-005
-5.88006e-005
-5.87543e-005
-5.87088e-005
-5.86623e-005
-5.86171e-005
-5.85744e-005
-5.85351e-005
-5.85e-005
-5.84713e-005
-5.84513e-005
-5.84417e-005
-5.84407e-005
-6.12468e-005
-6.1195e-005
-6.1136e-005
-6.10839e-005
-6.10328e-005
-6.09806e-005
-6.09302e-005
-6.08829e-005
-6.08395e-005
-6.08013e-005
-6.07705e-005
-6.07498e-005
-6.07411e-005
-6.07418e-005
-6.364e-005
-6.35808e-005
-6.35141e-005
-6.34556e-005
-6.33982e-005
-6.33397e-005
-6.32834e-005
-6.32307e-005
-6.31828e-005
-6.31412e-005
-6.31081e-005
-6.30866e-005
-6.3079e-005
-6.30817e-005
-6.60783e-005
-6.60107e-005
-6.59352e-005
-6.58693e-005
-6.58049e-005
-6.57393e-005
-6.56763e-005
-6.56177e-005
-6.55648e-005
-6.55192e-005
-6.54835e-005
-6.54613e-005
-6.54552e-005
-6.54603e-005
-6.85622e-005
-6.8485e-005
-6.83995e-005
-6.83253e-005
-6.82529e-005
-6.81791e-005
-6.81085e-005
-6.80432e-005
-6.79847e-005
-6.79347e-005
-6.78963e-005
-6.78734e-005
-6.78691e-005
-6.78771e-005
-7.10917e-005
-7.10036e-005
-7.09069e-005
-7.08233e-005
-7.07418e-005
-7.06588e-005
-7.05796e-005
-7.05068e-005
-7.04419e-005
-7.0387e-005
-7.03456e-005
-7.03224e-005
-7.03204e-005
-7.0332e-005
-7.3667e-005
-7.35664e-005
-7.34569e-005
-7.33628e-005
-7.32711e-005
-7.31778e-005
-7.30891e-005
-7.30078e-005
-7.29358e-005
-7.28756e-005
-7.28311e-005
-7.28076e-005
-7.28087e-005
-7.2825e-005
-7.62885e-005
-7.61739e-005
-7.60499e-005
-7.59438e-005
-7.58407e-005
-7.57358e-005
-7.56365e-005
-7.55458e-005
-7.54661e-005
-7.54001e-005
-7.53523e-005
-7.53288e-005
-7.5334e-005
-7.53561e-005
-7.89572e-005
-7.88268e-005
-7.86865e-005
-7.8567e-005
-7.8451e-005
-7.83332e-005
-7.82219e-005
-7.81208e-005
-7.80326e-005
-7.79602e-005
-7.7909e-005
-7.7886e-005
-7.78962e-005
-7.79253e-005
-8.16742e-005
-8.15259e-005
-8.13673e-005
-8.12328e-005
-8.11025e-005
-8.09702e-005
-8.08456e-005
-8.0733e-005
-8.06353e-005
-8.0556e-005
-8.05011e-005
-8.0479e-005
-8.04953e-005
-8.05327e-005
-8.44402e-005
-8.4272e-005
-8.4093e-005
-8.39418e-005
-8.37955e-005
-8.36472e-005
-8.35079e-005
-8.33825e-005
-8.32744e-005
-8.31875e-005
-8.31288e-005
-8.31079e-005
-8.31315e-005
-8.31786e-005
-8.72564e-005
-8.70659e-005
-8.68641e-005
-8.66944e-005
-8.65304e-005
-8.63644e-005
-8.62089e-005
-8.60695e-005
-8.59498e-005
-8.58547e-005
-8.5792e-005
-8.57727e-005
-8.58048e-005
-8.58631e-005
-9.01242e-005
-8.99091e-005
-8.96819e-005
-8.94916e-005
-8.93081e-005
-8.91224e-005
-8.8949e-005
-8.87941e-005
-8.86619e-005
-8.85578e-005
-8.84909e-005
-8.84737e-005
-8.85156e-005
-8.85866e-005
-9.30449e-005
-9.28024e-005
-9.25473e-005
-9.23344e-005
-9.21293e-005
-9.19221e-005
-9.17289e-005
-9.1557e-005
-9.14112e-005
-9.12973e-005
-9.1226e-005
-9.12113e-005
-9.12642e-005
-9.13495e-005
-9.60192e-005
-9.57466e-005
-9.54608e-005
-9.52232e-005
-9.49946e-005
-9.47637e-005
-9.4549e-005
-9.43586e-005
-9.41979e-005
-9.40735e-005
-9.39974e-005
-9.39858e-005
-9.40511e-005
-9.41523e-005
-9.90478e-005
-9.8742e-005
-9.84227e-005
-9.8158e-005
-9.79037e-005
-9.76472e-005
-9.74091e-005
-9.71987e-005
-9.70218e-005
-9.68861e-005
-9.68051e-005
-9.67971e-005
-9.68763e-005
-9.69951e-005
-0.000102131
-0.000101789
-0.000101433
-0.000101139
-0.000100857
-0.000100572
-0.000100309
-0.000100076
-9.98822e-005
-9.97345e-005
-9.96484e-005
-9.96447e-005
-9.97393e-005
-9.98777e-005
-0.000105268
-0.000104886
-0.000104491
-0.000104165
-0.000103852
-0.000103538
-0.000103247
-0.000102991
-0.000102778
-0.000102618
-0.000102526
-0.000102528
-0.00010264
-0.000102799
-0.000108457
-0.000108033
-0.000107595
-0.000107234
-0.000106889
-0.000106542
-0.000106222
-0.000105941
-0.000105709
-0.000105534
-0.000105438
-0.000105445
-0.000105576
-0.000105759
-0.000111698
-0.000111228
-0.000110743
-0.000110346