/*--------------------------------*- C++ -*----------------------------------*\
| =========                 |                                                 |
| \\      /  F ield         | OpenFOAM: The Open Source CFD Toolbox           |
|  \\    /   O peration     | Version:  5.x                                   |
|   \\  /    A nd           | Web:      www.OpenFOAM.org                      |
|    \\/     M anipulation  |                                                 |
\*---------------------------------------------------------------------------*/
/*   Windows 32 and 64 bit porting by blueCAPE: http://www.bluecape.com.pt   *\
|  Based on Windows porting (2.0.x v4) by Symscape: http://www.symscape.com   |
\*---------------------------------------------------------------------------*/
FoamFile
{
    version     2.0;
    format      ascii;
    class       volScalarField;
    location    "1.6";
    object      p;
}
// * * * * * * * * * * * * * * * * * * * * * * * * * * * * * * * * * * * * * //

dimensions      [0 2 -2 0 0 0 0];

internalField   nonuniform List<scalar> 
141075
(
4.61732e-007
4.62715e-007
4.62651e-007
4.62766e-007
4.62702e-007
4.62505e-007
4.62277e-007
4.62058e-007
4.61895e-007
4.61807e-007
4.61786e-007
4.61827e-007
4.61979e-007
4.61933e-007
1.39855e-006
1.39889e-006
1.3981e-006
1.3973e-006
1.39647e-006
1.39562e-006
1.39483e-006
1.39418e-006
1.3937e-006
1.39344e-006
1.39346e-006
1.39385e-006
1.39487e-006
1.39581e-006
2.35388e-006
2.35199e-006
2.34952e-006
2.34703e-006
2.3446e-006
2.34226e-006
2.34007e-006
2.33814e-006
2.33654e-006
2.33539e-006
2.33483e-006
2.33503e-006
2.33658e-006
2.33852e-006
3.31578e-006
3.31281e-006
3.3084e-006
3.30435e-006
3.30069e-006
3.29721e-006
3.29396e-006
3.29111e-006
3.28879e-006
3.28717e-006
3.28644e-006
3.28686e-006
3.28936e-006
3.29193e-006
4.28871e-006
4.28514e-006
4.27961e-006
4.27432e-006
4.2694e-006
4.26478e-006
4.26055e-006
4.2569e-006
4.25401e-006
4.25203e-006
4.25116e-006
4.2519e-006
4.25574e-006
4.25759e-006
5.26974e-006
5.26541e-006
5.25869e-006
5.25216e-006
5.246e-006
5.24016e-006
5.23481e-006
5.23017e-006
5.22644e-006
5.22384e-006
5.22265e-006
5.22331e-006
5.22735e-006
5.23151e-006
6.26117e-006
6.25594e-006
6.2478e-006
6.24e-006
6.23266e-006
6.22569e-006
6.2193e-006
6.21377e-006
6.20939e-006
6.20641e-006
6.20516e-006
6.20608e-006
6.2108e-006
6.21628e-006
7.26687e-006
7.26067e-006
7.25099e-006
7.24185e-006
7.23334e-006
7.22529e-006
7.21791e-006
7.21157e-006
7.2066e-006
7.20331e-006
7.20205e-006
7.20324e-006
7.20865e-006
7.21514e-006
8.29113e-006
8.28401e-006
8.27282e-006
8.2623e-006
8.25252e-006
8.24331e-006
8.23491e-006
8.22772e-006
8.22208e-006
8.2183e-006
8.21675e-006
8.21787e-006
8.22361e-006
8.23085e-006
9.3376e-006
9.32962e-006
9.31696e-006
9.30512e-006
9.2941e-006
9.28371e-006
9.27424e-006
9.26611e-006
9.25968e-006
9.25531e-006
9.25342e-006
9.25447e-006
9.2605e-006
9.26836e-006
1.04097e-005
1.04008e-005
1.03867e-005
1.03736e-005
1.03614e-005
1.03498e-005
1.03392e-005
1.033e-005
1.03227e-005
1.03177e-005
1.03154e-005
1.03162e-005
1.03223e-005
1.03303e-005
1.15108e-005
1.15011e-005
1.14857e-005
1.14713e-005
1.14579e-005
1.14452e-005
1.14334e-005
1.14231e-005
1.14147e-005
1.14086e-005
1.14052e-005
1.1405e-005
1.14101e-005
1.14175e-005
1.26439e-005
1.26335e-005
1.26171e-005
1.26017e-005
1.25872e-005
1.25733e-005
1.25603e-005
1.25487e-005
1.25389e-005
1.25312e-005
1.25263e-005
1.25245e-005
1.25278e-005
1.25341e-005
1.38103e-005
1.37994e-005
1.37821e-005
1.37659e-005
1.37505e-005
1.37355e-005
1.37214e-005
1.37084e-005
1.36971e-005
1.36879e-005
1.36813e-005
1.36777e-005
1.36791e-005
1.36837e-005
1.50103e-005
1.4999e-005
1.4981e-005
1.49641e-005
1.49479e-005
1.49321e-005
1.49168e-005
1.49027e-005
1.489e-005
1.48793e-005
1.48709e-005
1.48654e-005
1.48642e-005
1.48665e-005
1.62437e-005
1.62321e-005
1.62137e-005
1.61962e-005
1.61794e-005
1.61627e-005
1.61465e-005
1.61312e-005
1.6117e-005
1.61045e-005
1.60942e-005
1.60869e-005
1.60802e-005
1.60805e-005
1.75093e-005
1.74974e-005
1.74789e-005
1.74611e-005
1.74438e-005
1.74264e-005
1.74092e-005
1.73925e-005
1.73767e-005
1.73621e-005
1.73491e-005
1.73379e-005
1.73301e-005
1.7326e-005
1.88051e-005
1.87931e-005
1.87745e-005
1.87565e-005
1.87389e-005
1.87209e-005
1.87029e-005
1.8685e-005
1.86676e-005
1.86509e-005
1.86354e-005
1.86209e-005
1.86094e-005
1.86015e-005
2.01287e-005
2.01167e-005
2.00982e-005
2.00801e-005
2.00622e-005
2.00438e-005
2.0025e-005
2.00061e-005
1.99874e-005
1.99683e-005
1.99504e-005
1.99332e-005
1.99177e-005
1.99056e-005
2.14769e-005
2.14649e-005
2.14466e-005
2.14286e-005
2.14105e-005
2.13918e-005
2.13724e-005
2.13526e-005
2.13324e-005
2.1312e-005
2.12916e-005
2.12715e-005
2.12519e-005
2.12357e-005
2.28459e-005
2.28341e-005
2.28162e-005
2.27982e-005
2.27801e-005
2.27612e-005
2.27414e-005
2.27208e-005
2.26994e-005
2.26774e-005
2.26549e-005
2.2632e-005
2.26086e-005
2.25881e-005
2.42325e-005
2.42209e-005
2.42033e-005
2.41854e-005
2.41673e-005
2.41482e-005
2.4128e-005
2.41067e-005
2.40843e-005
2.40609e-005
2.40366e-005
2.40112e-005
2.39843e-005
2.39601e-005
2.56326e-005
2.56212e-005
2.56039e-005
2.55862e-005
2.5568e-005
2.55488e-005
2.55282e-005
2.55064e-005
2.54833e-005
2.54588e-005
2.54329e-005
2.54057e-005
2.53759e-005
2.53487e-005
2.70423e-005
2.7031e-005
2.70139e-005
2.69964e-005
2.69783e-005
2.6959e-005
2.69384e-005
2.69162e-005
2.68926e-005
2.68673e-005
2.68405e-005
2.68119e-005
2.67802e-005
2.67511e-005
2.84583e-005
2.84472e-005
2.84302e-005
2.84127e-005
2.83947e-005
2.83756e-005
2.8355e-005
2.83328e-005
2.83089e-005
2.82834e-005
2.82561e-005
2.82268e-005
2.81942e-005
2.81644e-005
2.9878e-005
2.98672e-005
2.98501e-005
2.98327e-005
2.98149e-005
2.9796e-005
2.97757e-005
2.97538e-005
2.97302e-005
2.97049e-005
2.96778e-005
2.96486e-005
2.96162e-005
2.95868e-005
3.12998e-005
3.12893e-005
3.12721e-005
3.12549e-005
3.12374e-005
3.12191e-005
3.11995e-005
3.11783e-005
3.11555e-005
3.11311e-005
3.11049e-005
3.10768e-005
3.10454e-005
3.10171e-005
3.27231e-005
3.27129e-005
3.26959e-005
3.2679e-005
3.26621e-005
3.26446e-005
3.26259e-005
3.26059e-005
3.25845e-005
3.25617e-005
3.25373e-005
3.2511e-005
3.24813e-005
3.24542e-005
3.41471e-005
3.41376e-005
3.4121e-005
3.41047e-005
3.40885e-005
3.40721e-005
3.40547e-005
3.40363e-005
3.40168e-005
3.39962e-005
3.39743e-005
3.39505e-005
3.39228e-005
3.38966e-005
3.55702e-005
3.55618e-005
3.55462e-005
3.55307e-005
3.55155e-005
3.55004e-005
3.54846e-005
3.54682e-005
3.54511e-005
3.54333e-005
3.54145e-005
3.53938e-005
3.53684e-005
3.53428e-005
3.699e-005
3.6983e-005
3.69686e-005
3.69542e-005
3.69404e-005
3.6927e-005
3.69132e-005
3.68992e-005
3.68849e-005
3.68703e-005
3.68551e-005
3.68379e-005
3.68152e-005
3.67904e-005
3.84041e-005
3.83987e-005
3.83857e-005
3.83729e-005
3.83607e-005
3.83492e-005
3.83378e-005
3.83265e-005
3.83153e-005
3.83043e-005
3.8293e-005
3.82797e-005
3.82601e-005
3.82367e-005
3.98102e-005
3.98068e-005
3.97957e-005
3.97847e-005
3.97744e-005
3.97654e-005
3.97567e-005
3.97484e-005
3.97406e-005
3.97334e-005
3.97261e-005
3.97169e-005
3.97009e-005
3.96795e-005
4.12066e-005
4.12058e-005
4.11971e-005
4.11884e-005
4.11807e-005
4.11747e-005
4.11692e-005
4.11643e-005
4.11602e-005
4.11571e-005
4.11541e-005
4.11491e-005
4.11368e-005
4.11178e-005
4.25909e-005
4.25934e-005
4.2588e-005
4.25823e-005
4.25778e-005
4.25754e-005
4.25737e-005
4.25729e-005
4.25731e-005
4.25743e-005
4.25759e-005
4.25754e-005
4.25668e-005
4.25499e-005
4.39591e-005
4.39657e-005
4.39644e-005
4.39627e-005
4.39621e-005
4.39641e-005
4.39669e-005
4.39708e-005
4.39757e-005
4.39819e-005
4.39885e-005
4.39927e-005
4.39878e-005
4.39727e-005
4.53056e-005
4.53171e-005
4.5321e-005
4.5324e-005
4.53281e-005
4.53352e-005
4.53434e-005
4.53525e-005
4.5363e-005
4.53747e-005
4.53869e-005
4.53962e-005
4.53947e-005
4.5381e-005
4.6624e-005
4.66413e-005
4.66515e-005
4.666e-005
4.66695e-005
4.66825e-005
4.66967e-005
4.6712e-005
4.67286e-005
4.67465e-005
4.67647e-005
4.67794e-005
4.67813e-005
4.67683e-005
4.79071e-005
4.79314e-005
4.79489e-005
4.79639e-005
4.79797e-005
4.79995e-005
4.80205e-005
4.80425e-005
4.80659e-005
4.80907e-005
4.81155e-005
4.81358e-005
4.81408e-005
4.81276e-005
4.91475e-005
4.91799e-005
4.92059e-005
4.92285e-005
4.92515e-005
4.92789e-005
4.93077e-005
4.93374e-005
4.93684e-005
4.94007e-005
4.94326e-005
4.94591e-005
4.9467e-005
4.94529e-005
5.03373e-005
5.03791e-005
5.04149e-005
5.04461e-005
5.04774e-005
5.05137e-005
5.05512e-005
5.05897e-005
5.06293e-005
5.06702e-005
5.07104e-005
5.07438e-005
5.07549e-005
5.07393e-005
5.14694e-005
5.1522e-005
5.1569e-005
5.161e-005
5.16507e-005
5.16971e-005
5.17448e-005
5.17932e-005
5.18429e-005
5.18938e-005
5.19436e-005
5.19852e-005
5.2e-005
5.19823e-005
5.25363e-005
5.26015e-005
5.26616e-005
5.27139e-005
5.27654e-005
5.28233e-005
5.28825e-005
5.29425e-005
5.30037e-005
5.30663e-005
5.31273e-005
5.31785e-005
5.31977e-005
5.3177e-005
5.35303e-005
5.361e-005
5.36852e-005
5.37506e-005
5.38145e-005
5.38856e-005
5.39581e-005
5.40313e-005
5.41059e-005
5.41819e-005
5.4256e-005
5.43184e-005
5.43425e-005
5.43183e-005
5.44435e-005
5.45396e-005
5.4632e-005
5.47122e-005
5.47901e-005
5.48764e-005
5.4964e-005
5.50523e-005
5.51422e-005
5.52336e-005
5.53227e-005
5.5398e-005
5.5428e-005
5.53998e-005
5.5268e-005
5.53828e-005
5.54945e-005
5.55912e-005
5.56849e-005
5.57881e-005
5.58926e-005
5.5998e-005
5.61049e-005
5.62136e-005
5.63197e-005
5.64097e-005
5.64466e-005
5.64142e-005
5.59968e-005
5.61328e-005
5.62662e-005
5.63816e-005
5.64928e-005
5.66147e-005
5.67381e-005
5.68622e-005
5.69881e-005
5.7116e-005
5.72408e-005
5.7347e-005
5.73917e-005
5.73548e-005
5.6623e-005
5.67829e-005
5.6941e-005
5.70773e-005
5.72083e-005
5.73513e-005
5.74957e-005
5.76406e-005
5.77874e-005
5.79363e-005
5.80816e-005
5.82056e-005
5.82587e-005
5.82167e-005
5.71406e-005
5.73273e-005
5.75128e-005
5.76726e-005
5.78258e-005
5.79924e-005
5.81602e-005
5.83283e-005
5.84981e-005
5.86702e-005
5.88381e-005
5.89816e-005
5.90438e-005
5.89959e-005
5.7545e-005
5.77616e-005
5.79777e-005
5.81633e-005
5.83408e-005
5.85335e-005
5.8727e-005
5.89205e-005
5.91158e-005
5.93134e-005
5.95062e-005
5.96714e-005
5.97437e-005
5.96896e-005
5.78324e-005
5.80825e-005
5.83324e-005
5.85466e-005
5.87508e-005
5.8972e-005
5.91938e-005
5.94152e-005
5.96384e-005
5.98642e-005
6.00845e-005
6.02737e-005
6.03574e-005
6.02964e-005
5.79999e-005
5.8287e-005
5.85746e-005
5.88206e-005
5.90545e-005
5.93074e-005
5.95605e-005
5.98127e-005
6.00667e-005
6.03235e-005
6.05742e-005
6.07898e-005
6.08859e-005
6.08169e-005
5.80467e-005
5.83747e-005
5.87038e-005
5.89849e-005
5.92517e-005
5.95396e-005
5.98274e-005
6.01136e-005
6.04015e-005
6.06924e-005
6.09764e-005
6.12209e-005
6.13304e-005
6.12522e-005
5.79733e-005
5.83464e-005
5.87211e-005
5.90406e-005
5.93433e-005
5.96693e-005
5.99948e-005
6.03182e-005
6.06431e-005
6.09712e-005
6.12916e-005
6.15676e-005
6.16915e-005
6.16027e-005
5.77806e-005
5.82033e-005
5.86279e-005
5.89891e-005
5.93306e-005
5.9698e-005
6.00643e-005
6.04278e-005
6.07927e-005
6.11611e-005
6.15209e-005
6.18309e-005
6.19699e-005
6.18687e-005
5.74695e-005
5.79464e-005
5.84257e-005
5.88324e-005
5.9216e-005
5.9628e-005
6.00381e-005
6.04447e-005
6.08525e-005
6.12641e-005
6.16662e-005
6.20124e-005
6.21667e-005
6.20505e-005
5.70405e-005
5.75764e-005
5.81152e-005
5.85714e-005
5.90006e-005
5.94608e-005
5.99182e-005
6.0371e-005
6.08247e-005
6.12824e-005
6.17293e-005
6.21138e-005
6.22832e-005
6.21488e-005
5.64951e-005
5.70947e-005
5.76976e-005
5.82068e-005
5.86849e-005
5.91969e-005
5.97049e-005
6.0207e-005
6.07096e-005
6.12161e-005
6.17104e-005
6.21349e-005
6.23189e-005
6.21626e-005
5.58369e-005
5.6505e-005
5.71768e-005
5.77426e-005
5.82726e-005
5.88395e-005
5.94012e-005
5.99557e-005
6.051e-005
6.10684e-005
6.16127e-005
6.20791e-005
6.22773e-005
6.20957e-005
5.5069e-005
5.58104e-005
5.65558e-005
5.71818e-005
5.77667e-005
5.83916e-005
5.90098e-005
5.96193e-005
6.0228e-005
6.08407e-005
6.14376e-005
6.19478e-005
6.21597e-005
6.19493e-005
5.41955e-005
5.5015e-005
5.58385e-005
5.65284e-005
5.71714e-005
5.78574e-005
5.85351e-005
5.92022e-005
5.98679e-005
6.05373e-005
6.1189e-005
6.17446e-005
6.197e-005
6.17275e-005
5.32231e-005
5.41249e-005
5.50307e-005
5.57877e-005
5.6492e-005
5.72425e-005
5.79826e-005
5.87101e-005
5.94351e-005
6.01637e-005
6.08722e-005
6.14748e-005
6.17132e-005
6.14356e-005
5.21615e-005
5.31499e-005
5.41417e-005
5.49686e-005
5.57366e-005
5.65541e-005
5.73593e-005
5.81498e-005
5.89367e-005
5.97268e-005
6.04944e-005
6.11456e-005
6.1397e-005
6.10819e-005
5.10219e-005
5.21008e-005
5.31826e-005
5.40822e-005
5.49159e-005
5.58028e-005
5.66751e-005
5.75305e-005
5.83813e-005
5.9235e-005
6.00639e-005
6.07653e-005
6.10299e-005
6.06754e-005
4.98165e-005
5.09894e-005
5.21645e-005
5.31396e-005
5.40414e-005
5.49999e-005
5.59415e-005
5.68636e-005
5.778e-005
5.86989e-005
5.95905e-005
6.03433e-005
6.06208e-005
6.02253e-005
4.85605e-005
4.98299e-005
5.11009e-005
5.21535e-005
5.31255e-005
5.41577e-005
5.51703e-005
5.61607e-005
5.71438e-005
5.8129e-005
5.90843e-005
5.9889e-005
6.01791e-005
5.9741e-005
4.72718e-005
4.86401e-005
5.00087e-005
5.11399e-005
5.21829e-005
5.32895e-005
5.4374e-005
5.54333e-005
5.64838e-005
5.75359e-005
5.85553e-005
5.94124e-005
5.97146e-005
5.92334e-005
4.59699e-005
4.74386e-005
4.89059e-005
5.01164e-005
5.12304e-005
5.24117e-005
5.35679e-005
5.46961e-005
5.58138e-005
5.69325e-005
5.80158e-005
5.89247e-005
5.92385e-005
5.87139e-005
4.46756e-005
4.62452e-005
4.78117e-005
4.91015e-005
5.02866e-005
5.15426e-005
5.27703e-005
5.39666e-005
5.51506e-005
5.63347e-005
5.74806e-005
5.844e-005
5.87643e-005
5.81963e-005
4.34139e-005
4.50843e-005
4.67497e-005
4.81186e-005
4.93744e-005
5.07044e-005
5.20026e-005
5.32657e-005
5.45142e-005
5.57616e-005
5.69677e-005
5.79752e-005
5.83082e-005
5.76968e-005
4.22124e-005
4.39823e-005
4.57454e-005
4.71925e-005
4.85179e-005
4.99206e-005
5.12877e-005
5.26156e-005
5.39259e-005
5.52336e-005
5.64967e-005
5.75492e-005
5.78883e-005
5.72332e-005
4.11006e-005
4.29673e-005
4.48252e-005
4.6348e-005
4.77409e-005
4.92139e-005
5.06475e-005
5.20373e-005
5.34064e-005
5.47709e-005
5.60872e-005
5.71809e-005
5.7523e-005
5.68237e-005
4.01094e-005
4.20698e-005
4.40194e-005
4.56144e-005
4.70706e-005
4.86098e-005
5.01056e-005
5.15535e-005
5.29772e-005
5.4394e-005
5.5759e-005
5.68894e-005
5.72311e-005
5.64867e-005
3.92672e-005
4.1317e-005
4.33543e-005
4.5018e-005
4.6534e-005
4.81348e-005
4.9688e-005
5.11886e-005
5.26617e-005
5.41254e-005
5.55333e-005
5.6695e-005
5.70321e-005
5.62418e-005
3.86018e-005
4.07342e-005
4.28527e-005
4.45805e-005
4.61526e-005
4.78112e-005
4.94173e-005
5.09657e-005
5.24827e-005
5.39872e-005
5.54317e-005
5.66184e-005
5.69462e-005
5.61094e-005
3.81446e-005
4.03531e-005
4.2546e-005
4.43312e-005
4.5953e-005
4.76628e-005
4.93159e-005
5.09063e-005
5.24609e-005
5.39997e-005
5.54741e-005
5.66794e-005
5.69931e-005
5.61091e-005
3.79201e-005
4.01965e-005
4.24566e-005
4.4293e-005
4.59579e-005
4.77116e-005
4.94043e-005
5.10294e-005
5.26146e-005
5.41804e-005
5.56774e-005
5.68946e-005
5.71899e-005
5.62589e-005
3.79456e-005
4.02792e-005
4.25957e-005
4.44754e-005
4.61773e-005
4.79685e-005
4.96943e-005
5.13477e-005
5.29566e-005
5.45425e-005
5.60549e-005
5.72773e-005
5.75505e-005
5.6574e-005
3.82388e-005
4.06196e-005
4.29826e-005
4.48964e-005
4.66262e-005
4.84456e-005
5.01963e-005
5.18701e-005
5.34955e-005
5.5094e-005
5.66145e-005
5.78355e-005
5.80834e-005
5.70637e-005
3.88037e-005
4.12196e-005
4.36186e-005
4.5559e-005
4.73093e-005
4.91484e-005
5.09149e-005
5.26004e-005
5.42333e-005
5.58357e-005
5.7356e-005
5.85687e-005
5.87882e-005
5.7729e-005
3.96418e-005
4.2077e-005
4.44948e-005
4.645e-005
4.8213e-005
5.00642e-005
5.18391e-005
5.35285e-005
5.51608e-005
5.67586e-005
5.82702e-005
5.94675e-005
5.96563e-005
5.85621e-005
4.07637e-005
4.32054e-005
4.56297e-005
4.75864e-005
4.93477e-005
5.11966e-005
5.29672e-005
5.46493e-005
5.62706e-005
5.78535e-005
5.93463e-005
6.05195e-005
6.06743e-005
5.95497e-005
4.21588e-005
4.45908e-005
4.70064e-005
4.89534e-005
5.0703e-005
5.25382e-005
5.42925e-005
5.59555e-005
5.75542e-005
5.91106e-005
6.05735e-005
6.17129e-005
6.18297e-005
6.06796e-005
4.38168e-005
4.6221e-005
4.86085e-005
5.0531e-005
5.22576e-005
5.40681e-005
5.57961e-005
5.74303e-005
5.89966e-005
6.05165e-005
6.19396e-005
6.3037e-005
6.3114e-005
6.19452e-005
4.57278e-005
4.80905e-005
5.04385e-005
5.23257e-005
5.40157e-005
5.57863e-005
5.74738e-005
5.90663e-005
6.05887e-005
6.2062e-005
6.34366e-005
6.44863e-005
6.45246e-005
6.3347e-005
4.78659e-005
5.01653e-005
5.2452e-005
5.42916e-005
5.59394e-005
5.76635e-005
5.93031e-005
6.0846e-005
6.23168e-005
6.37362e-005
6.50564e-005
6.60555e-005
6.60593e-005
6.48849e-005
5.02318e-005
5.24507e-005
5.46568e-005
5.64311e-005
5.8021e-005
5.96859e-005
6.12682e-005
6.27547e-005
6.4168e-005
6.55282e-005
6.67893e-005
6.77349e-005
6.77083e-005
6.65492e-005
5.2807e-005
5.49306e-005
5.70436e-005
5.87399e-005
6.02574e-005
6.18478e-005
6.33597e-005
6.47797e-005
6.61282e-005
6.74236e-005
6.86209e-005
6.95103e-005
6.9457e-005
6.83244e-005
5.55477e-005
5.75563e-005
5.95569e-005
6.11651e-005
6.26053e-005
6.41147e-005
6.55493e-005
6.68961e-005
6.8174e-005
6.93998e-005
7.05301e-005
7.13626e-005
7.12884e-005
7.01947e-005
5.84279e-005
6.03054e-005
6.21787e-005
6.36881e-005
6.50419e-005
6.64622e-005
6.78129e-005
6.90806e-005
7.02824e-005
7.14335e-005
7.24927e-005
7.32672e-005
7.31783e-005
7.21366e-005
6.14119e-005
6.31419e-005
6.4871e-005
6.62689e-005
6.75274e-005
6.88508e-005
7.01117e-005
7.12966e-005
7.24198e-005
7.34941e-005
7.44803e-005
7.51962e-005
7.50988e-005
7.41216e-005
6.44549e-005
6.60222e-005
6.75922e-005
6.88677e-005
7.00214e-005
7.12385e-005
7.24023e-005
7.34996e-005
7.45421e-005
7.55398e-005
7.64553e-005
7.71179e-005
7.70232e-005
7.6126e-005
6.75021e-005
6.88929e-005
7.02883e-005
7.143e-005
7.24712e-005
7.35746e-005
7.46356e-005
7.56414e-005
7.66016e-005
7.75239e-005
7.83731e-005
7.89913e-005
7.89154e-005
7.81168e-005
7.04869e-005
7.16932e-005
7.29108e-005
7.3916e-005
7.48388e-005
7.58222e-005
7.67754e-005
7.76866e-005
7.85629e-005
7.94097e-005
8.01937e-005
8.07701e-005
8.07208e-005
8.0033e-005
7.33172e-005
7.43255e-005
7.53509e-005
7.62166e-005
7.70271e-005
7.78967e-005
7.8748e-005
7.95703e-005
8.03682e-005
8.11443e-005
8.18664e-005
8.24028e-005
8.23849e-005
8.18165e-005
7.59159e-005
7.67247e-005
7.75587e-005
7.82854e-005
7.89839e-005
7.97431e-005
8.04997e-005
8.12423e-005
8.19713e-005
8.26845e-005
8.33499e-005
8.38505e-005
8.38704e-005
8.34295e-005
7.81581e-005
7.87725e-005
7.94254e-005
8.00255e-005
8.06253e-005
8.12871e-005
8.19632e-005
8.26418e-005
8.33177e-005
8.39818e-005
8.46011e-005
8.50721e-005
8.51323e-005
8.48176e-005
7.98689e-005
8.03044e-005
8.0808e-005
8.13168e-005
8.18516e-005
8.24473e-005
8.30727e-005
8.37154e-005
8.43642e-005
8.50034e-005
8.55966e-005
8.6052e-005
8.61542e-005
8.595e-005
8.08843e-005
8.1177e-005
8.15787e-005
8.2057e-005
8.26034e-005
8.32108e-005
8.38557e-005
8.45197e-005
8.51837e-005
8.58233e-005
8.6397e-005
8.68169e-005
8.68991e-005
8.67253e-005
4.59367e-007
4.60538e-007
4.60588e-007
4.60683e-007
4.60615e-007
4.60452e-007
4.60313e-007
4.60249e-007
4.60311e-007
4.60533e-007
4.60898e-007
4.61373e-007
4.61975e-007
4.62232e-007
1.39188e-006
1.39231e-006
1.39176e-006
1.39123e-006
1.39062e-006
1.38999e-006
1.38949e-006
1.38926e-006
1.38941e-006
1.39e-006
1.39108e-006
1.39276e-006
1.39523e-006
1.39724e-006
2.34408e-006
2.34213e-006
2.33981e-006
2.33762e-006
2.33565e-006
2.33388e-006
2.33241e-006
2.33138e-006
2.33093e-006
2.33121e-006
2.33246e-006
2.33486e-006
2.33895e-006
2.34283e-006
3.30314e-006
3.30026e-006
3.29635e-006
3.29264e-006
3.28925e-006
3.28622e-006
3.28372e-006
3.28197e-006
3.28114e-006
3.28149e-006
3.2833e-006
3.2868e-006
3.29273e-006
3.29825e-006
4.27263e-006
4.26912e-006
4.26422e-006
4.2595e-006
4.25512e-006
4.25115e-006
4.24786e-006
4.24553e-006
4.24445e-006
4.24492e-006
4.24727e-006
4.25181e-006
4.25954e-006
4.26648e-006
5.2507e-006
5.24637e-006
5.24032e-006
5.23447e-006
5.22903e-006
5.22408e-006
5.2199e-006
5.21689e-006
5.21537e-006
5.21574e-006
5.21844e-006
5.22391e-006
5.23328e-006
5.24196e-006
6.23985e-006
6.23465e-006
6.2273e-006
6.22023e-006
6.21364e-006
6.20762e-006
6.20254e-006
6.19883e-006
6.19692e-006
6.19731e-006
6.20054e-006
6.20711e-006
6.2183e-006
6.22866e-006
7.24368e-006
7.23756e-006
7.22883e-006
7.22048e-006
7.21272e-006
7.20562e-006
7.1996e-006
7.19519e-006
7.19289e-006
7.19329e-006
7.19702e-006
7.20461e-006
7.2175e-006
7.2294e-006
8.26627e-006
8.25926e-006
8.24917e-006
8.23954e-006
8.23058e-006
8.22236e-006
8.21536e-006
8.21016e-006
8.20733e-006
8.2075e-006
8.21141e-006
8.21965e-006
8.23382e-006
8.24696e-006
9.31121e-006
9.30332e-006
9.29186e-006
9.28099e-006
9.27085e-006
9.26151e-006
9.25348e-006
9.24739e-006
9.24387e-006
9.24364e-006
9.24752e-006
9.2562e-006
9.27139e-006
9.2855e-006
1.03819e-005
1.03732e-005
1.03604e-005
1.03483e-005
1.0337e-005
1.03264e-005
1.03173e-005
1.03101e-005
1.03057e-005
1.03049e-005
1.03085e-005
1.03173e-005
1.03329e-005
1.03474e-005
1.14817e-005
1.14722e-005
1.14582e-005
1.14449e-005
1.14324e-005
1.14206e-005
1.14103e-005
1.14019e-005
1.13964e-005
1.13945e-005
1.1397e-005
1.14049e-005
1.14198e-005
1.14335e-005
1.2613e-005
1.26029e-005
1.25879e-005
1.25736e-005
1.25601e-005
1.25472e-005
1.25357e-005
1.2526e-005
1.2519e-005
1.25156e-005
1.25165e-005
1.25227e-005
1.25358e-005
1.25481e-005
1.37775e-005
1.37669e-005
1.37511e-005
1.3736e-005
1.37215e-005
1.37077e-005
1.36949e-005
1.36839e-005
1.36753e-005
1.36701e-005
1.3669e-005
1.3673e-005
1.36837e-005
1.36937e-005
1.49754e-005
1.49644e-005
1.4948e-005
1.49322e-005
1.49169e-005
1.49021e-005
1.48882e-005
1.48758e-005
1.48657e-005
1.48585e-005
1.48553e-005
1.48567e-005
1.48644e-005
1.48704e-005
1.62064e-005
1.61951e-005
1.61782e-005
1.61619e-005
1.6146e-005
1.61304e-005
1.61154e-005
1.61017e-005
1.60898e-005
1.60804e-005
1.60743e-005
1.60723e-005
1.60751e-005
1.60784e-005
1.74693e-005
1.74579e-005
1.74408e-005
1.74241e-005
1.74077e-005
1.73914e-005
1.73754e-005
1.73603e-005
1.73464e-005
1.73345e-005
1.73252e-005
1.73191e-005
1.73169e-005
1.73161e-005
1.87625e-005
1.87511e-005
1.87339e-005
1.8717e-005
1.87002e-005
1.86833e-005
1.86663e-005
1.86498e-005
1.86341e-005
1.86195e-005
1.86069e-005
1.85962e-005
1.85888e-005
1.85831e-005
2.00835e-005
2.00721e-005
2.0055e-005
2.0038e-005
2.0021e-005
2.00036e-005
1.99858e-005
1.99681e-005
1.9951e-005
1.99324e-005
1.99169e-005
1.99023e-005
1.98894e-005
1.98785e-005
2.14291e-005
2.14178e-005
2.14008e-005
2.13839e-005
2.13668e-005
2.1349e-005
2.13305e-005
2.13115e-005
2.12922e-005
2.12727e-005
2.12534e-005
2.12344e-005
2.12158e-005
2.11997e-005
2.2796e-005
2.2785e-005
2.27683e-005
2.27515e-005
2.27342e-005
2.27162e-005
2.26971e-005
2.26771e-005
2.26562e-005
2.26344e-005
2.2612e-005
2.25888e-005
2.25648e-005
2.25435e-005
2.41809e-005
2.41701e-005
2.41537e-005
2.41369e-005
2.41197e-005
2.41014e-005
2.40817e-005
2.40608e-005
2.40385e-005
2.40146e-005
2.39893e-005
2.39623e-005
2.39333e-005
2.39073e-005
2.55797e-005
2.55692e-005
2.55531e-005
2.55364e-005
2.55192e-005
2.55007e-005
2.54807e-005
2.5459e-005
2.54354e-005
2.54098e-005
2.53821e-005
2.53519e-005
2.53186e-005
2.52887e-005
2.69892e-005
2.69789e-005
2.69629e-005
2.69463e-005
2.69291e-005
2.69106e-005
2.68903e-005
2.68681e-005
2.68437e-005
2.68169e-005
2.67872e-005
2.67546e-005
2.6718e-005
2.66854e-005
2.8406e-005
2.83959e-005
2.838e-005
2.83635e-005
2.83464e-005
2.8328e-005
2.83077e-005
2.82853e-005
2.82605e-005
2.82329e-005
2.82021e-005
2.81679e-005
2.81293e-005
2.80952e-005
2.98276e-005
2.98178e-005
2.98018e-005
2.97855e-005
2.97686e-005
2.97505e-005
2.97305e-005
2.97083e-005
2.96836e-005
2.96559e-005
2.96248e-005
2.959e-005
2.95506e-005
2.95162e-005
3.12525e-005
3.1243e-005
3.12271e-005
3.12109e-005
3.11944e-005
3.11768e-005
3.11574e-005
3.11359e-005
3.11118e-005
3.10847e-005
3.10542e-005
3.10199e-005
3.09809e-005
3.0947e-005
3.26798e-005
3.26708e-005
3.26551e-005
3.26393e-005
3.26234e-005
3.26065e-005
3.2588e-005
3.25674e-005
3.25444e-005
3.25185e-005
3.24894e-005
3.24564e-005
3.24186e-005
3.23858e-005
3.41086e-005
3.41003e-005
3.40853e-005
3.40701e-005
3.40549e-005
3.4039e-005
3.40215e-005
3.40022e-005
3.39806e-005
3.39564e-005
3.39291e-005
3.3898e-005
3.38622e-005
3.38306e-005
3.55374e-005
3.55302e-005
3.55162e-005
3.55019e-005
3.54877e-005
3.5473e-005
3.54569e-005
3.5439e-005
3.54192e-005
3.5397e-005
3.53719e-005
3.53432e-005
3.53097e-005
3.52795e-005
3.69641e-005
3.69582e-005
3.69456e-005
3.69324e-005
3.69196e-005
3.69064e-005
3.68919e-005
3.68759e-005
3.68582e-005
3.68383e-005
3.68159e-005
3.67899e-005
3.6759e-005
3.67303e-005
3.83863e-005
3.83822e-005
3.83712e-005
3.83595e-005
3.83483e-005
3.83369e-005
3.83245e-005
3.83107e-005
3.82954e-005
3.82782e-005
3.82585e-005
3.82354e-005
3.82073e-005
3.81804e-005
3.98022e-005
3.98002e-005
3.97912e-005
3.97814e-005
3.97721e-005
3.97631e-005
3.97531e-005
3.9742e-005
3.97294e-005
3.9715e-005
3.96983e-005
3.96779e-005
3.96524e-005
3.96275e-005
4.12099e-005
4.12105e-005
4.12041e-005
4.11967e-005
4.119e-005
4.11838e-005
4.11769e-005
4.11688e-005
4.11592e-005
4.11479e-005
4.1134e-005
4.11162e-005
4.10928e-005
4.10694e-005
4.26068e-005
4.26107e-005
4.26078e-005
4.26034e-005
4.26e-005
4.25974e-005
4.2594e-005
4.25895e-005
4.25833e-005
4.25752e-005
4.2564e-005
4.25483e-005
4.25263e-005
4.2504e-005
4.39891e-005
4.39971e-005
4.39985e-005
4.39979e-005
4.39985e-005
4.40001e-005
4.4001e-005
4.40005e-005
4.39981e-005
4.39932e-005
4.39847e-005
4.39706e-005
4.39492e-005
4.39272e-005
4.53515e-005
4.53645e-005
4.53711e-005
4.53752e-005
4.53804e-005
4.53869e-005
4.53926e-005
4.53966e-005
4.53982e-005
4.53967e-005
4.53906e-005
4.53777e-005
4.53561e-005
4.53336e-005
4.66878e-005
4.67066e-005
4.67195e-005
4.6729e-005
4.67396e-005
4.67518e-005
4.67628e-005
4.67718e-005
4.67777e-005
4.67797e-005
4.67758e-005
4.67635e-005
4.67407e-005
4.67167e-005
4.79914e-005
4.80172e-005
4.80373e-005
4.80531e-005
4.807e-005
4.80885e-005
4.81056e-005
4.812e-005
4.81306e-005
4.8136e-005
4.81341e-005
4.81217e-005
4.80965e-005
4.80701e-005
4.92555e-005
4.92894e-005
4.93179e-005
4.93409e-005
4.93649e-005
4.93907e-005
4.94147e-005
4.94351e-005
4.94506e-005
4.94597e-005
4.94596e-005
4.94466e-005
4.94181e-005
4.9388e-005
5.04729e-005
5.05162e-005
5.05544e-005
5.05857e-005
5.06178e-005
5.06519e-005
5.06835e-005
5.07108e-005
5.0732e-005
5.07451e-005
5.07471e-005
5.07333e-005
5.07007e-005
5.06661e-005
5.16367e-005
5.16909e-005
5.17403e-005
5.17811e-005
5.18225e-005
5.18659e-005
5.19063e-005
5.19413e-005
5.19689e-005
5.19868e-005
5.19911e-005
5.19765e-005
5.19395e-005
5.18995e-005
5.27402e-005
5.2807e-005
5.28694e-005
5.29212e-005
5.29731e-005
5.30272e-005
5.30776e-005
5.31213e-005
5.31561e-005
5.31794e-005
5.31865e-005
5.31712e-005
5.31294e-005
5.30833e-005
5.37765e-005
5.38576e-005
5.3935e-005
5.39993e-005
5.40633e-005
5.41296e-005
5.41913e-005
5.42449e-005
5.4288e-005
5.43174e-005
5.43278e-005
5.43121e-005
5.42651e-005
5.4212e-005
5.4738e-005
5.48357e-005
5.49302e-005
5.50086e-005
5.50862e-005
5.51663e-005
5.52407e-005
5.53057e-005
5.53582e-005
5.53947e-005
5.5409e-005
5.53931e-005
5.53407e-005
5.52799e-005
5.56175e-005
5.57339e-005
5.58477e-005
5.59421e-005
5.60351e-005
5.61307e-005
5.62194e-005
5.6297e-005
5.63602e-005
5.64047e-005
5.64237e-005
5.64077e-005
5.63494e-005
5.62802e-005
5.64083e-005
5.65457e-005
5.66815e-005
5.67938e-005
5.6904e-005
5.7017e-005
5.71219e-005
5.72137e-005
5.72887e-005
5.73422e-005
5.73661e-005
5.73498e-005
5.72849e-005
5.72062e-005
5.71041e-005
5.72654e-005
5.74256e-005
5.75582e-005
5.76878e-005
5.78205e-005
5.79436e-005
5.80513e-005
5.81395e-005
5.82028e-005
5.82321e-005
5.82149e-005
5.81418e-005
5.8052e-005
5.76996e-005
5.78875e-005
5.80752e-005
5.82303e-005
5.83816e-005
5.85363e-005
5.86797e-005
5.88053e-005
5.89082e-005
5.89823e-005
5.90172e-005
5.89987e-005
5.89161e-005
5.88136e-005
5.819e-005
5.84076e-005
5.86259e-005
5.8806e-005
5.89813e-005
5.91603e-005
5.93261e-005
5.94713e-005
5.95904e-005
5.96764e-005
5.97174e-005
5.96974e-005
5.96041e-005
5.94877e-005
5.85716e-005
5.88224e-005
5.90745e-005
5.92823e-005
5.94841e-005
5.96898e-005
5.98803e-005
6.00472e-005
6.01841e-005
6.02831e-005
6.03308e-005
6.0309e-005
6.02039e-005
6.00721e-005
5.88425e-005
5.91299e-005
5.94194e-005
5.96578e-005
5.9889e-005
6.01243e-005
6.03421e-005
6.05328e-005
6.06893e-005
6.08025e-005
6.08575e-005
6.08335e-005
6.07152e-005
6.05662e-005
5.90019e-005
5.93299e-005
5.96607e-005
5.99327e-005
6.0196e-005
6.04639e-005
6.07117e-005
6.09285e-005
6.11063e-005
6.12351e-005
6.12977e-005
6.12711e-005
6.11382e-005
6.097e-005
5.90499e-005
5.94225e-005
5.97986e-005
6.01074e-005
6.04059e-005
6.07092e-005
6.09894e-005
6.12345e-005
6.14354e-005
6.15808e-005
6.16515e-005
6.16218e-005
6.14725e-005
6.12831e-005
5.89873e-005
5.94088e-005
5.98345e-005
6.01833e-005
6.05197e-005
6.08613e-005
6.11764e-005
6.14517e-005
6.16771e-005
6.18401e-005
6.19192e-005
6.18856e-005
6.17181e-005
6.1505e-005
5.8815e-005
5.92898e-005
5.97695e-005
6.01616e-005
6.05392e-005
6.09219e-005
6.12745e-005
6.1582e-005
6.18333e-005
6.20145e-005
6.21019e-005
6.20633e-005
6.18748e-005
6.1635e-005
5.85343e-005
5.90671e-005
5.96053e-005
6.00443e-005
6.04661e-005
6.0893e-005
6.12857e-005
6.16272e-005
6.19058e-005
6.21058e-005
6.22011e-005
6.21557e-005
6.19432e-005
6.16727e-005
5.81464e-005
5.87418e-005
5.93433e-005
5.98325e-005
6.03016e-005
6.07757e-005
6.1211e-005
6.15887e-005
6.18957e-005
6.2115e-005
6.22176e-005
6.21636e-005
6.19234e-005
6.1618e-005
5.76541e-005
5.83166e-005
5.89859e-005
5.95287e-005
6.00483e-005
6.05726e-005
6.1053e-005
6.14689e-005
6.18058e-005
6.2045e-005
6.21545e-005
6.20902e-005
6.18189e-005
6.14743e-005
5.70601e-005
5.77944e-005
5.85358e-005
5.91356e-005
5.97084e-005
6.02858e-005
6.08138e-005
6.12698e-005
6.16379e-005
6.18976e-005
6.20136e-005
6.19372e-005
6.16315e-005
6.12436e-005
5.6369e-005
5.71794e-005
5.79972e-005
5.86572e-005
5.92862e-005
5.99193e-005
6.04972e-005
6.0995e-005
6.13954e-005
6.16759e-005
6.17979e-005
6.17079e-005
6.13647e-005
6.09298e-005
5.55868e-005
5.64774e-005
5.73757e-005