/*--------------------------------*- C++ -*----------------------------------*\
| =========                 |                                                 |
| \\      /  F ield         | OpenFOAM: The Open Source CFD Toolbox           |
|  \\    /   O peration     | Version:  5.x                                   |
|   \\  /    A nd           | Web:      www.OpenFOAM.org                      |
|    \\/     M anipulation  |                                                 |
\*---------------------------------------------------------------------------*/
/*   Windows 32 and 64 bit porting by blueCAPE: http://www.bluecape.com.pt   *\
|  Based on Windows porting (2.0.x v4) by Symscape: http://www.symscape.com   |
\*---------------------------------------------------------------------------*/
FoamFile
{
    version     2.0;
    format      ascii;
    class       volScalarField;
    location    "2";
    object      p;
}
// * * * * * * * * * * * * * * * * * * * * * * * * * * * * * * * * * * * * * //

dimensions      [0 2 -2 0 0 0 0];

internalField   nonuniform List<scalar> 
141075
(
6.22292e-007
6.24156e-007
6.25539e-007
6.26905e-007
6.28062e-007
6.29093e-007
6.30077e-007
6.31028e-007
6.31967e-007
6.32895e-007
6.33781e-007
6.34572e-007
6.35128e-007
6.34977e-007
1.8826e-006
1.88465e-006
1.88683e-006
1.88896e-006
1.89106e-006
1.89319e-006
1.89542e-006
1.89773e-006
1.90013e-006
1.9026e-006
1.90511e-006
1.90768e-006
1.9102e-006
1.91184e-006
3.17225e-006
3.17388e-006
3.17646e-006
3.1789e-006
3.18137e-006
3.18406e-006
3.18698e-006
3.19012e-006
3.19348e-006
3.19705e-006
3.20086e-006
3.2049e-006
3.2092e-006
3.21269e-006
4.45461e-006
4.4564e-006
4.45911e-006
4.46197e-006
4.46511e-006
4.46857e-006
4.47236e-006
4.47651e-006
4.48103e-006
4.48594e-006
4.49126e-006
4.49697e-006
4.50322e-006
4.50848e-006
5.73078e-006
5.73317e-006
5.73664e-006
5.74015e-006
5.74397e-006
5.74829e-006
5.75312e-006
5.75846e-006
5.76434e-006
5.77073e-006
5.77762e-006
5.785e-006
5.79316e-006
5.80009e-006
6.99506e-006
6.99797e-006
7.00222e-006
7.00639e-006
7.01083e-006
7.01585e-006
7.02149e-006
7.02779e-006
7.03476e-006
7.04242e-006
7.05082e-006
7.05942e-006
7.06952e-006
7.07811e-006
8.24573e-006
8.24903e-006
8.25384e-006
8.25868e-006
8.26389e-006
8.26974e-006
8.2763e-006
8.28363e-006
8.29177e-006
8.30074e-006
8.31044e-006
8.32106e-006
8.3329e-006
8.34304e-006
9.48261e-006
9.48628e-006
9.49158e-006
9.49696e-006
9.50278e-006
9.50938e-006
9.51683e-006
9.52521e-006
9.53454e-006
9.54476e-006
9.55611e-006
9.56842e-006
9.58208e-006
9.59374e-006
1.07057e-005
1.07098e-005
1.07157e-005
1.07218e-005
1.07275e-005
1.0735e-005
1.07433e-005
1.07526e-005
1.07631e-005
1.07747e-005
1.07874e-005
1.08012e-005
1.08165e-005
1.08296e-005
1.19153e-005
1.19197e-005
1.1926e-005
1.19324e-005
1.19393e-005
1.19473e-005
1.19563e-005
1.19666e-005
1.1978e-005
1.19909e-005
1.2005e-005
1.20204e-005
1.20374e-005
1.20518e-005
1.31124e-005
1.31171e-005
1.31238e-005
1.31307e-005
1.31382e-005
1.31468e-005
1.31566e-005
1.31677e-005
1.31803e-005
1.31943e-005
1.32098e-005
1.32267e-005
1.32452e-005
1.32609e-005
1.42982e-005
1.43034e-005
1.43106e-005
1.4318e-005
1.4326e-005
1.43352e-005
1.43457e-005
1.43576e-005
1.4371e-005
1.43859e-005
1.44025e-005
1.44204e-005
1.444e-005
1.44564e-005
1.54739e-005
1.54796e-005
1.54874e-005
1.54955e-005
1.55042e-005
1.5514e-005
1.55251e-005
1.55376e-005
1.55516e-005
1.55672e-005
1.55843e-005
1.56028e-005
1.56228e-005
1.56394e-005
1.664e-005
1.66463e-005
1.66548e-005
1.66636e-005
1.6673e-005
1.66835e-005
1.66952e-005
1.67083e-005
1.67228e-005
1.67388e-005
1.67563e-005
1.67751e-005
1.67952e-005
1.68116e-005
1.7796e-005
1.78031e-005
1.78126e-005
1.78223e-005
1.78324e-005
1.78435e-005
1.78558e-005
1.78694e-005
1.78843e-005
1.79006e-005
1.79183e-005
1.7937e-005
1.79567e-005
1.79724e-005
1.89407e-005
1.89487e-005
1.89595e-005
1.89702e-005
1.89812e-005
1.89932e-005
1.90061e-005
1.90201e-005
1.90353e-005
1.90516e-005
1.9069e-005
1.90872e-005
1.91059e-005
1.91202e-005
2.00723e-005
2.00813e-005
2.00935e-005
2.01054e-005
2.01176e-005
2.01305e-005
2.01441e-005
2.01587e-005
2.0174e-005
2.01902e-005
2.02072e-005
2.02245e-005
2.02416e-005
2.02541e-005
2.11888e-005
2.1199e-005
2.1213e-005
2.12263e-005
2.12395e-005
2.12534e-005
2.12678e-005
2.12828e-005
2.12984e-005
2.13144e-005
2.13308e-005
2.13471e-005
2.13624e-005
2.13726e-005
2.22874e-005
2.2299e-005
2.23148e-005
2.23297e-005
2.23442e-005
2.23592e-005
2.23745e-005
2.23901e-005
2.24059e-005
2.24218e-005
2.24375e-005
2.24526e-005
2.24658e-005
2.24734e-005
2.33652e-005
2.33781e-005
2.33959e-005
2.34125e-005
2.34285e-005
2.34448e-005
2.34612e-005
2.34775e-005
2.34937e-005
2.35094e-005
2.35246e-005
2.35386e-005
2.35496e-005
2.35544e-005
2.44196e-005
2.44341e-005
2.44541e-005
2.44724e-005
2.44899e-005
2.45077e-005
2.45252e-005
2.45424e-005
2.4559e-005
2.45749e-005
2.45897e-005
2.46027e-005
2.46116e-005
2.46134e-005
2.54479e-005
2.54642e-005
2.54864e-005
2.55067e-005
2.55259e-005
2.55451e-005
2.5564e-005
2.55822e-005
2.55995e-005
2.56158e-005
2.56304e-005
2.56428e-005
2.56498e-005
2.56488e-005
2.64476e-005
2.64658e-005
2.64904e-005
2.65127e-005
2.65337e-005
2.65546e-005
2.6575e-005
2.65945e-005
2.66128e-005
2.66298e-005
2.66448e-005
2.66568e-005
2.66624e-005
2.66588e-005
2.74169e-005
2.74371e-005
2.74643e-005
2.74887e-005
2.75116e-005
2.75343e-005
2.75564e-005
2.75774e-005
2.7597e-005
2.76151e-005
2.76308e-005
2.76431e-005
2.76478e-005
2.76424e-005
2.83541e-005
2.83765e-005
2.84063e-005
2.84329e-005
2.84578e-005
2.84826e-005
2.85065e-005
2.85293e-005
2.85506e-005
2.85701e-005
2.85871e-005
2.86003e-005
2.86049e-005
2.85985e-005
2.92582e-005
2.92829e-005
2.93153e-005
2.93442e-005
2.93713e-005
2.93984e-005
2.94246e-005
2.94494e-005
2.94728e-005
2.94943e-005
2.95132e-005
2.9528e-005
2.95336e-005
2.95273e-005
3.01291e-005
3.01564e-005
3.01914e-005
3.02228e-005
3.02523e-005
3.02819e-005
3.03107e-005
3.03381e-005
3.03641e-005
3.03882e-005
3.04098e-005
3.04272e-005
3.04348e-005
3.04296e-005
3.09682e-005
3.09983e-005
3.10361e-005
3.10701e-005
3.11023e-005
3.11348e-005
3.11666e-005
3.11972e-005
3.12264e-005
3.1254e-005
3.12791e-005
3.13001e-005
3.13106e-005
3.13072e-005
3.17779e-005
3.18111e-005
3.18522e-005
3.18891e-005
3.19242e-005
3.19601e-005
3.19953e-005
3.20296e-005
3.20628e-005
3.20947e-005
3.21244e-005
3.21497e-005
3.21639e-005
3.21623e-005
3.2561e-005
3.2598e-005
3.26427e-005
3.26831e-005
3.27216e-005
3.27612e-005
3.28005e-005
3.2839e-005
3.28769e-005
3.29139e-005
3.29489e-005
3.29796e-005
3.29978e-005
3.29978e-005
3.332e-005
3.33612e-005
3.34103e-005
3.34545e-005
3.34968e-005
3.35407e-005
3.35846e-005
3.3628e-005
3.36712e-005
3.37139e-005
3.37551e-005
3.37916e-005
3.38142e-005
3.38154e-005
3.40567e-005
3.41028e-005
3.4157e-005
3.42056e-005
3.42522e-005
3.43009e-005
3.43498e-005
3.43987e-005
3.44477e-005
3.44968e-005
3.45447e-005
3.45877e-005
3.46149e-005
3.46173e-005
3.47729e-005
3.48246e-005
3.48845e-005
3.49381e-005
3.49896e-005
3.50437e-005
3.50983e-005
3.51532e-005
3.52086e-005
3.52647e-005
3.53198e-005
3.53698e-005
3.5402e-005
3.54057e-005
3.54707e-005
3.55288e-005
3.55951e-005
3.56544e-005
3.57115e-005
3.57717e-005
3.58327e-005
3.58943e-005
3.59569e-005
3.60205e-005
3.60834e-005
3.61408e-005
3.61784e-005
3.61834e-005
3.61524e-005
3.62178e-005
3.62915e-005
3.63574e-005
3.64208e-005
3.64881e-005
3.65563e-005
3.66253e-005
3.66957e-005
3.67674e-005
3.68388e-005
3.6904e-005
3.69471e-005
3.69533e-005
3.68188e-005
3.68927e-005
3.69751e-005
3.70486e-005
3.71193e-005
3.71945e-005
3.72708e-005
3.73482e-005
3.74271e-005
3.75077e-005
3.75879e-005
3.76614e-005
3.77099e-005
3.77168e-005
3.74695e-005
3.7553e-005
3.76454e-005
3.77275e-005
3.78066e-005
3.78908e-005
3.79762e-005
3.80627e-005
3.8151e-005
3.82412e-005
3.8331e-005
3.84132e-005
3.84671e-005
3.84743e-005
3.81029e-005
3.81972e-005
3.83009e-005
3.83927e-005
3.84811e-005
3.85753e-005
3.86707e-005
3.87673e-005
3.88658e-005
3.89664e-005
3.90665e-005
3.91579e-005
3.92173e-005
3.92245e-005
3.8717e-005
3.88235e-005
3.89398e-005
3.90425e-005
3.91411e-005
3.92463e-005
3.93528e-005
3.94604e-005
3.95699e-005
3.96817e-005
3.97928e-005
3.9894e-005
3.99588e-005
3.99654e-005
3.93094e-005
3.94296e-005
3.95599e-005
3.96747e-005
3.97848e-005
3.99021e-005
4.00208e-005
4.01405e-005
4.0262e-005
4.03859e-005
4.05087e-005
4.06202e-005
4.06903e-005
4.06954e-005
3.98775e-005
4.0013e-005
4.01591e-005
4.02872e-005
4.04099e-005
4.05408e-005
4.06729e-005
4.08057e-005
4.09405e-005
4.10775e-005
4.12131e-005
4.13354e-005
4.14107e-005
4.14131e-005
4.0418e-005
4.05706e-005
4.07342e-005
4.08771e-005
4.10137e-005
4.11594e-005
4.13061e-005
4.14534e-005
4.16025e-005
4.17539e-005
4.19034e-005
4.20377e-005
4.21183e-005
4.21169e-005
4.09268e-005
4.10984e-005
4.12812e-005
4.14405e-005
4.15924e-005
4.17542e-005
4.1917e-005
4.20802e-005
4.22452e-005
4.24126e-005
4.25776e-005
4.2725e-005
4.28114e-005
4.28055e-005
4.14002e-005
4.15927e-005
4.17967e-005
4.19739e-005
4.21425e-005
4.23223e-005
4.25029e-005
4.26837e-005
4.28663e-005
4.30514e-005
4.32336e-005
4.33959e-005
4.34886e-005
4.34773e-005
4.18347e-005
4.20504e-005
4.22778e-005
4.24746e-005
4.26616e-005
4.2861e-005
4.30611e-005
4.32612e-005
4.34633e-005
4.3668e-005
4.38694e-005
4.40479e-005
4.41476e-005
4.413e-005
4.22264e-005
4.24675e-005
4.27206e-005
4.2939e-005
4.31461e-005
4.3367e-005
4.35884e-005
4.38097e-005
4.4033e-005
4.42591e-005
4.44814e-005
4.46779e-005
4.47852e-005
4.47607e-005
4.25718e-005
4.28406e-005
4.31216e-005
4.33634e-005
4.35923e-005
4.38366e-005
4.40812e-005
4.43255e-005
4.45718e-005
4.48213e-005
4.50664e-005
4.52824e-005
4.5398e-005
4.5366e-005
4.28677e-005
4.31668e-005
4.34782e-005
4.37453e-005
4.39978e-005
4.42673e-005
4.45369e-005
4.4806e-005
4.50772e-005
4.53518e-005
4.56214e-005
4.58585e-005
4.59831e-005
4.59428e-005
4.31114e-005
4.34435e-005
4.37878e-005
4.40823e-005
4.43603e-005
4.4657e-005
4.49535e-005
4.52492e-005
4.5547e-005
4.58484e-005
4.61442e-005
4.64036e-005
4.65377e-005
4.64884e-005
4.33005e-005
4.36681e-005
4.4048e-005
4.4372e-005
4.46774e-005
4.50034e-005
4.53288e-005
4.56529e-005
4.59791e-005
4.63091e-005
4.66329e-005
4.69162e-005
4.70603e-005
4.70012e-005
4.34335e-005
4.38396e-005
4.42576e-005
4.46132e-005
4.49479e-005
4.53051e-005
4.56614e-005
4.60158e-005
4.63723e-005
4.67328e-005
4.70865e-005
4.73954e-005
4.75502e-005
4.74808e-005
4.35096e-005
4.3957e-005
4.4416e-005
4.48055e-005
4.51715e-005
4.55622e-005
4.59515e-005
4.63382e-005
4.6727e-005
4.71199e-005
4.75053e-005
4.78415e-005
4.80077e-005
4.79273e-005
4.35293e-005
4.40209e-005
4.45237e-005
4.49494e-005
4.5349e-005
4.57755e-005
4.62e-005
4.66213e-005
4.70443e-005
4.74717e-005
4.78907e-005
4.82556e-005
4.84337e-005
4.83413e-005
4.34942e-005
4.40331e-005
4.45826e-005
4.50469e-005
4.54822e-005
4.59468e-005
4.64087e-005
4.68665e-005
4.73258e-005
4.77896e-005
4.8244e-005
4.86391e-005
4.88293e-005
4.87239e-005
4.34065e-005
4.39957e-005
4.4595e-005
4.51003e-005
4.55734e-005
4.60782e-005
4.65795e-005
4.70759e-005
4.75733e-005
4.80753e-005
4.85668e-005
4.89934e-005
4.91961e-005
4.90763e-005
4.32685e-005
4.39109e-005
4.45629e-005
4.51116e-005
4.56247e-005
4.61719e-005
4.67146e-005
4.72513e-005
4.77886e-005
4.83305e-005
4.88607e-005
4.93201e-005
4.95352e-005
4.93995e-005
4.30838e-005
4.37825e-005
4.44899e-005
4.50841e-005
4.56389e-005
4.62305e-005
4.68166e-005
4.73953e-005
4.79742e-005
4.85574e-005
4.91278e-005
4.96209e-005
4.98479e-005
4.96941e-005
4.28552e-005
4.36131e-005
4.43791e-005
4.50206e-005
4.56187e-005
4.62561e-005
4.68867e-005
4.75087e-005
4.81301e-005
4.87559e-005
4.93673e-005
4.98946e-005
5.01326e-005
4.9958e-005
4.25851e-005
4.3405e-005
4.42322e-005
4.49235e-005
4.55667e-005
4.62517e-005
4.69285e-005
4.75951e-005
4.82604e-005
4.89297e-005
4.95831e-005
5.0145e-005
5.03931e-005
5.0195e-005
4.22758e-005
4.31598e-005
4.40503e-005
4.4793e-005
4.5483e-005
4.62174e-005
4.6942e-005
4.76547e-005
4.8365e-005
4.90789e-005
4.97751e-005
5.03719e-005
5.06288e-005
5.04043e-005
4.19321e-005
4.28827e-005
4.38387e-005
4.4634e-005
4.53717e-005
4.61565e-005
4.69298e-005
4.76894e-005
4.84457e-005
4.92051e-005
4.99447e-005
5.05767e-005
5.08414e-005
5.05881e-005
4.1558e-005
4.25769e-005
4.36002e-005
4.44495e-005
4.52358e-005
4.60719e-005
4.68946e-005
4.77017e-005
4.85043e-005
4.93096e-005
5.00931e-005
5.07604e-005
5.10319e-005
5.07477e-005
4.11582e-005
4.22468e-005
4.33383e-005
4.42425e-005
4.50783e-005
4.59665e-005
4.68395e-005
4.76947e-005
4.85442e-005
4.93958e-005
5.02235e-005
5.09261e-005
5.12036e-005
5.08868e-005
4.07403e-005
4.18998e-005
4.30606e-005
4.402e-005
4.49056e-005
4.58463e-005
4.67697e-005
4.76734e-005
4.85701e-005
4.94683e-005
5.03403e-005
5.10782e-005
5.1361e-005
5.10104e-005
4.03119e-005
4.1543e-005
4.27739e-005
4.37892e-005
4.47248e-005
4.57182e-005
4.66923e-005
4.76442e-005
4.8588e-005
4.95324e-005
5.04485e-005
5.12212e-005
5.15086e-005
5.11233e-005
3.98828e-005
4.11851e-005
4.24857e-005
4.35567e-005
4.45426e-005
4.55887e-005
4.66133e-005
4.76133e-005
4.86035e-005
4.95936e-005
5.05528e-005
5.13593e-005
5.16503e-005
5.12296e-005
3.94651e-005
4.08386e-005
4.22083e-005
4.33341e-005
4.43688e-005
4.54665e-005
4.65405e-005
4.75875e-005
4.8623e-005
4.96574e-005
5.06586e-005
5.14976e-005
5.17908e-005
5.13345e-005
3.90691e-005
4.05129e-005
4.1951e-005
4.31307e-005
4.42131e-005
4.53608e-005
4.64824e-005
4.75746e-005
4.86536e-005
4.97307e-005
5.07721e-005
5.1642e-005
5.19364e-005
5.14447e-005
3.87053e-005
4.02171e-005
4.17211e-005
4.29533e-005
4.40826e-005
4.52792e-005
4.64472e-005
4.75829e-005
4.87037e-005
4.98215e-005
5.09011e-005
5.18001e-005
5.20944e-005
5.15679e-005
3.839e-005
3.99676e-005
4.15349e-005
4.28169e-005
4.39905e-005
4.52341e-005
4.64464e-005
4.76237e-005
4.8784e-005
4.99399e-005
5.1055e-005
5.19805e-005
5.22731e-005
5.17122e-005
3.81405e-005
3.97811e-005
4.14095e-005
4.27391e-005
4.39543e-005
4.52414e-005
4.6495e-005
4.77106e-005
4.89071e-005
5.00977e-005
5.12447e-005
5.21932e-005
5.24819e-005
5.18874e-005
3.79711e-005
3.96707e-005
4.13564e-005
4.27313e-005
4.39861e-005
4.53144e-005
4.66062e-005
4.78568e-005
4.90856e-005
5.03067e-005
5.14813e-005
5.24489e-005
5.27313e-005
5.21038e-005
3.78993e-005
3.96533e-005
4.13917e-005
4.28081e-005
4.40994e-005
4.54656e-005
4.67922e-005
4.80743e-005
4.93316e-005
5.05787e-005
5.17764e-005
5.27589e-005
5.30323e-005
5.23723e-005
3.7944e-005
3.97476e-005
4.15343e-005
4.29878e-005
4.43109e-005
4.57101e-005
4.7067e-005
4.83758e-005
4.9657e-005
5.09255e-005
5.21414e-005
5.31342e-005
5.33958e-005
5.27039e-005
3.81205e-005
3.99677e-005
4.17968e-005
4.32828e-005
4.46337e-005
4.60613e-005
4.74434e-005
4.87741e-005
5.0074e-005
5.13588e-005
5.25877e-005
5.3586e-005
5.38327e-005
5.31095e-005
3.84441e-005
4.03278e-005
4.21923e-005
4.37054e-005
4.50792e-005
4.65301e-005
4.79328e-005
4.92806e-005
5.05943e-005
5.189e-005
5.31266e-005
5.41255e-005
5.43543e-005
5.36005e-005
3.89284e-005
4.08419e-005
4.27356e-005
4.42699e-005
4.56607e-005
4.71289e-005
4.85462e-005
4.99056e-005
5.12277e-005
5.25288e-005
5.37676e-005
5.47622e-005
5.49704e-005
5.41869e-005
3.95803e-005
4.15156e-005
4.34314e-005
4.49818e-005
4.63849e-005
4.78648e-005
4.92911e-005
5.06563e-005
5.19812e-005
5.32822e-005
5.45175e-005
5.55027e-005
5.5688e-005
5.48764e-005
4.04052e-005
4.23528e-005
4.42804e-005
4.58394e-005
4.72496e-005
4.87359e-005
5.01663e-005
5.15326e-005
5.28554e-005
5.41512e-005
5.53782e-005
5.63496e-005
5.65102e-005
5.56725e-005
4.14068e-005
4.33581e-005
4.52893e-005
4.68488e-005
4.82577e-005
4.97426e-005
5.11701e-005
5.25314e-005
5.38466e-005
5.51322e-005
5.63459e-005
5.72997e-005
5.74343e-005
5.65734e-005
4.25774e-005
4.45231e-005
4.64499e-005
4.80038e-005
4.94051e-005
5.08811e-005
5.22984e-005
5.36476e-005
5.49485e-005
5.62172e-005
5.74117e-005
5.83431e-005
5.8451e-005
5.75702e-005
4.3908e-005
4.58362e-005
4.77462e-005
4.92863e-005
5.06745e-005
5.21357e-005
5.35367e-005
5.48676e-005
5.61477e-005
5.73928e-005
5.85616e-005
5.94654e-005
5.95451e-005
5.86484e-005
4.53966e-005
4.72976e-005
4.91812e-005
5.06985e-005
5.20644e-005
5.35014e-005
5.48774e-005
5.61819e-005
5.74337e-005
5.8648e-005
5.97839e-005
6.06541e-005
6.07039e-005
5.9795e-005
4.70317e-005
4.88935e-005
5.07392e-005
5.22254e-005
5.35621e-005
5.49674e-005
5.63109e-005
5.7582e-005
5.87982e-005
5.99746e-005
6.10709e-005
6.19019e-005
6.19206e-005
6.10036e-005
4.88022e-005
5.0613e-005
5.2408e-005
5.38524e-005
5.51513e-005
5.6517e-005
5.78217e-005
5.90538e-005
6.02297e-005
6.13635e-005
6.24158e-005
6.32049e-005
6.3194e-005
6.22752e-005
5.0696e-005
5.24466e-005
5.41837e-005
5.55793e-005
5.68316e-005
5.81482e-005
5.94052e-005
6.05909e-005
6.17207e-005
6.28076e-005
6.38129e-005
6.45591e-005
6.45224e-005
6.361e-005
5.26911e-005
5.43678e-005
5.6033e-005
5.73729e-005
5.8576e-005
5.98402e-005
6.10457e-005
6.21811e-005
6.32608e-005
6.42975e-005
6.52538e-005
6.59571e-005
6.58994e-005
6.5002e-005
5.47859e-005
5.63789e-005
5.79624e-005
5.92371e-005
6.03823e-005
6.15866e-005
6.2735e-005
6.3816e-005
6.48425e-005
6.5826e-005
6.67307e-005
6.73898e-005
6.73145e-005
6.64397e-005
5.69617e-005
5.84605e-005
5.9953e-005
6.11558e-005
6.22373e-005
6.33753e-005
6.44613e-005
6.54834e-005
6.64534e-005
6.73814e-005
6.82326e-005
6.88474e-005
6.87581e-005
6.79136e-005
5.91938e-005
6.05868e-005
6.19759e-005
6.30988e-005
6.41118e-005
6.51797e-005
6.62001e-005
6.71614e-005
6.80735e-005
6.89451e-005
6.97428e-005
7.03147e-005
7.02171e-005
6.94116e-005
6.14635e-005
6.27434e-005
6.4023e-005
6.506e-005
6.59974e-005
6.69879e-005
6.7937e-005
6.88334e-005
6.96851e-005
7.0499e-005
7.12426e-005
7.17724e-005
7.16723e-005
7.09156e-005
6.37354e-005
6.48914e-005
6.60516e-005
6.69978e-005
6.78581e-005
6.87689e-005
6.96443e-005
7.04734e-005
7.12633e-005
7.20188e-005
7.27095e-005
7.32009e-005
7.31064e-005
7.24097e-005
6.5981e-005
6.7005e-005
6.80366e-005
6.88852e-005
6.9663e-005
7.049e-005
7.12895e-005
7.20507e-005
7.2779e-005
7.34781e-005
7.41192e-005
7.45782e-005
7.45e-005
7.38759e-005
6.81591e-005
6.90446e-005
6.99415e-005
7.06882e-005
7.13802e-005
7.21204e-005
7.28421e-005
7.35351e-005
7.4203e-005
7.48479e-005
7.54426e-005
7.58729e-005
7.58181e-005
7.52757e-005
7.02184e-005
7.09611e-005
7.17207e-005
7.23649e-005
7.29712e-005
7.36248e-005
7.42696e-005
7.48964e-005
7.55068e-005
7.61e-005
7.66495e-005
7.70515e-005
7.7022e-005
7.65673e-005
7.20937e-005
7.26896e-005
7.33089e-005
7.38531e-005
7.43799e-005
7.49536e-005
7.55287e-005
7.60964e-005
7.66557e-005
7.7203e-005
7.77118e-005
7.80894e-005
7.80912e-005
7.77318e-005
7.37108e-005
7.41642e-005
7.46503e-005
7.51007e-005
7.5554e-005
7.60558e-005
7.65713e-005
7.70915e-005
7.76114e-005
7.81227e-005
7.85977e-005
7.89547e-005
7.89891e-005
7.87248e-005
7.4958e-005
7.52811e-005
7.56534e-005
7.60308e-005
7.64325e-005
7.68841e-005
7.73616e-005
7.78549e-005
7.83547e-005
7.88473e-005
7.93034e-005
7.96496e-005
7.97183e-005
7.954e-005
7.57071e-005
7.59361e-005
7.6251e-005
7.66077e-005
7.70057e-005
7.74528e-005
7.79325e-005
7.84308e-005
7.89332e-005
7.94203e-005
7.98594e-005
8.01812e-005
8.02403e-005
8.00948e-005
6.21738e-007
6.23701e-007
6.25105e-007
6.26395e-007
6.27496e-007
6.28498e-007
6.29491e-007
6.30495e-007
6.31529e-007
6.32604e-007
6.33686e-007
6.34724e-007
6.3566e-007
6.36011e-007
1.88214e-006
1.88419e-006
1.88639e-006
1.88856e-006
1.89065e-006
1.89279e-006
1.89507e-006
1.89754e-006
1.90024e-006
1.90314e-006
1.90622e-006
1.9095e-006
1.91302e-006
1.91568e-006
3.17243e-006
3.17384e-006
3.17623e-006
3.17868e-006
3.18131e-006
3.18422e-006
3.18743e-006
3.19097e-006
3.19487e-006
3.19915e-006
3.20387e-006
3.2091e-006
3.21504e-006
3.21997e-006
4.45605e-006
4.45768e-006
4.4603e-006
4.46306e-006
4.46613e-006
4.46966e-006
4.47371e-006
4.47832e-006
4.48352e-006
4.48938e-006
4.49598e-006
4.50337e-006
4.51181e-006
4.51888e-006
5.73322e-006
5.73539e-006
5.7388e-006
5.74228e-006
5.74611e-006
5.75052e-006
5.75561e-006
5.76146e-006
5.76812e-006
5.77567e-006
5.78415e-006
5.79365e-006
5.80445e-006
5.81363e-006
6.99887e-006
7.00145e-006
7.00552e-006
7.00969e-006
7.01425e-006
7.01949e-006
7.02551e-006
7.03245e-006
7.04037e-006
7.04937e-006
7.05955e-006
7.07094e-006
7.08408e-006
7.09524e-006
8.25174e-006
8.25469e-006
8.25931e-006
8.26405e-006
8.26929e-006
8.27531e-006
8.28227e-006
8.29029e-006
8.29948e-006
8.30998e-006
8.32188e-006
8.3353e-006
8.3508e-006
8.3639e-006
9.49119e-006
9.49448e-006
9.49961e-006
9.50488e-006
9.51069e-006
9.51741e-006
9.52522e-006
9.53427e-006
9.54467e-006
9.55658e-006
9.57024e-006
9.58568e-006
9.60344e-006
9.61842e-006
1.07171e-005
1.07207e-005
1.07263e-005
1.07321e-005
1.07384e-005
1.07458e-005
1.07544e-005
1.07644e-005
1.07759e-005
1.07892e-005
1.08044e-005
1.08216e-005
1.08415e-005
1.08582e-005
1.19299e-005
1.19338e-005
1.19398e-005
1.1946e-005
1.1953e-005
1.1961e-005
1.19703e-005
1.19811e-005
1.19936e-005
1.20081e-005
1.20248e-005
1.20437e-005
1.20656e-005
1.20841e-005
1.31303e-005
1.31345e-005
1.31409e-005
1.31476e-005
1.3155e-005
1.31636e-005
1.31735e-005
1.31851e-005
1.31985e-005
1.32141e-005
1.3232e-005
1.32525e-005
1.32762e-005
1.32962e-005
1.43193e-005
1.43239e-005
1.43308e-005
1.4338e-005
1.43458e-005
1.43549e-005
1.43654e-005
1.43776e-005
1.43917e-005
1.4408e-005
1.44269e-005
1.44484e-005
1.44732e-005
1.44941e-005
1.5498e-005
1.55031e-005
1.55106e-005
1.55183e-005
1.55267e-005
1.55363e-005
1.55473e-005
1.556e-005
1.55745e-005
1.55913e-005
1.56105e-005
1.56324e-005
1.56576e-005
1.56787e-005
1.66669e-005
1.66726e-005
1.66807e-005
1.66891e-005
1.66981e-005
1.67082e-005
1.67197e-005
1.67327e-005
1.67475e-005
1.67644e-005
1.67837e-005
1.68055e-005
1.68303e-005
1.68512e-005
1.78253e-005
1.78317e-005
1.78407e-005
1.78499e-005
1.78596e-005
1.78703e-005
1.78822e-005
1.78955e-005
1.79105e-005
1.79273e-005
1.79461e-005
1.79673e-005
1.79911e-005
1.80108e-005
1.8972e-005
1.89793e-005
1.89895e-005
1.89996e-005
1.90101e-005
1.90215e-005
1.9034e-005
1.90475e-005
1.90624e-005
1.90788e-005
1.90968e-005
1.91166e-005
1.91384e-005
1.91564e-005
2.01057e-005
2.0114e-005
2.01254e-005
2.01367e-005
2.01481e-005
2.01603e-005
2.01733e-005
2.01871e-005
2.02018e-005
2.02175e-005
2.02343e-005
2.02522e-005
2.02713e-005
2.02868e-005
2.12241e-005
2.12335e-005
2.12465e-005
2.1259e-005
2.12716e-005
2.12847e-005
2.12982e-005
2.13123e-005
2.13267e-005
2.13416e-005
2.13568e-005
2.13724e-005
2.13884e-005
2.14008e-005
2.23246e-005
2.23354e-005
2.23501e-005
2.2364e-005
2.23778e-005
2.23919e-005
2.24061e-005
2.24204e-005
2.24346e-005
2.24486e-005
2.24622e-005
2.24753e-005
2.24877e-005
2.24967e-005
2.34048e-005
2.3417e-005
2.34336e-005
2.3449e-005
2.34641e-005
2.34793e-005
2.34944e-005
2.3509e-005
2.3523e-005
2.35361e-005
2.3548e-005
2.35585e-005
2.35671e-005
2.35724e-005
2.44621e-005
2.44759e-005
2.44944e-005
2.45115e-005
2.45281e-005
2.45445e-005
2.45605e-005
2.45756e-005
2.45895e-005
2.46018e-005
2.4612e-005
2.46199e-005
2.46247e-005
2.46263e-005
2.5494e-005
2.55095e-005
2.55302e-005
2.55491e-005
2.55671e-005
2.5585e-005
2.5602e-005
2.56177e-005
2.56316e-005
2.56433e-005
2.56522e-005
2.56576e-005
2.56588e-005
2.56568e-005
2.64984e-005
2.65158e-005
2.65387e-005
2.65595e-005
2.65792e-005
2.65985e-005
2.66167e-005
2.66332e-005
2.66474e-005
2.66587e-005
2.66664e-005
2.66698e-005
2.66678e-005
2.66625e-005
2.74735e-005
2.74929e-005
2.75183e-005
2.7541e-005
2.75625e-005
2.75834e-005
2.7603e-005
2.76204e-005
2.76351e-005
2.76464e-005
2.76533e-005
2.76551e-005
2.76504e-005
2.76425e-005
2.8418e-005
2.84395e-005
2.84673e-005
2.84921e-005
2.85156e-005
2.85383e-005
2.85594e-005
2.85781e-005
2.85937e-005
2.86053e-005
2.86119e-005
2.86127e-005
2.86062e-005
2.85965e-005
2.93311e-005
2.93549e-005
2.93852e-005
2.94121e-005
2.94376e-005
2.94625e-005
2.94855e-005
2.95058e-005
2.95226e-005
2.95352e-005
2.95422e-005
2.95427e-005
2.95353e-005
2.95249e-005
3.02128e-005
3.02392e-005
3.0272e-005
3.03013e-005
3.03291e-005
3.03563e-005
3.03816e-005
3.04039e-005
3.04226e-005
3.04367e-005
3.04449e-005
3.04461e-005
3.04389e-005
3.04287e-005
3.10647e-005
3.10937e-005
3.11294e-005
3.11612e-005
3.11915e-005
3.12214e-005
3.12493e-005
3.12742e-005
3.12953e-005
3.13116e-005
3.13217e-005
3.13245e-005
3.13185e-005
3.13093e-005
3.18888e-005
3.1921e-005
3.19599e-005
3.19945e-005
3.20277e-005
3.20606e-005
3.20915e-005
3.21193e-005
3.21433e-005
3.21624e-005
3.21752e-005
3.21803e-005
3.21762e-005
3.21684e-005
3.2688e-005
3.27239e-005
3.27666e-005
3.28044e-005
3.28409e-005
3.28772e-005
3.29115e-005
3.29427e-005
3.29699e-005
3.29923e-005
3.30082e-005
3.30161e-005
3.30143e-005
3.30078e-005
3.34647e-005
3.35048e-005
3.35519e-005
3.35935e-005
3.36336e-005
3.36738e-005
3.37119e-005
3.37469e-005
3.37778e-005
3.38038e-005
3.38232e-005
3.38342e-005
3.38349e-005
3.38296e-005
3.42211e-005
3.4266e-005
3.43182e-005
3.43641e-005
3.44084e-005
3.44529e-005
3.44953e-005
3.45344e-005
3.45694e-005
3.45994e-005
3.46225e-005
3.46366e-005
3.46398e-005
3.46356e-005
3.49591e-005
3.50096e-005
3.50675e-005
3.51181e-005
3.51672e-005
3.52167e-005
3.5264e-005
3.53078e-005
3.53473e-005
3.53816e-005
3.54086e-005
3.5426e-005
3.54314e-005
3.54281e-005
3.56808e-005
3.57377e-005
3.58021e-005
3.58583e-005
3.59127e-005
3.59679e-005
3.60208e-005
3.60699e-005
3.61145e-005
3.61535e-005
3.61846e-005
3.6205e-005
3.62122e-005
3.62093e-005
3.63884e-005
3.64525e-005
3.65246e-005
3.65871e-005
3.66478e-005
3.67095e-005
3.67687e-005
3.68238e-005
3.6874e-005
3.69178e-005
3.69529e-005
3.6976e-005
3.69842e-005
3.6981e-005
3.70829e-005
3.71554e-005
3.72362e-005
3.7306e-005
3.7374e-005
3.74431e-005
3.75094e-005
3.75712e-005
3.76273e-005
3.76763e-005
3.77152e-005
3.77404e-005
3.77487e-005
3.77443e-005
3.7764e-005
3.78461e-005
3.79369e-005
3.80151e-005
3.80912e-005
3.81688e-005
3.82431e-005
3.83121e-005
3.83746e-005
3.84288e-005
3.84714e-005
3.84981e-005
3.85055e-005
3.84991e-005
3.84305e-005
3.85235e-005
3.86255e-005
3.87131e-005
3.87983e-005
3.88852e-005
3.89683e-005
3.90453e-005
3.91146e-005
3.91742e-005
3.92203e-005
3.92479e-005
3.92534e-005
3.92439e-005
3.90807e-005
3.91858e-005
3.93003e-005
3.93984e-005
3.94937e-005
3.95909e-005
3.96836e-005
3.97692e-005
3.98458e-005
3.9911e-005
3.99604e-005
3.99883e-005
3.99905e-005
3.9977e-005
3.97125e-005
3.98312e-005
3.99598e-005
4.00694e-005
4.01759e-005
4.02845e-005
4.03878e-005
4.04828e-005
4.05671e-005
4.06381e-005
4.06905e-005
4.07179e-005
4.07156e-005
4.06966e-005
4.03237e-005
4.04577e-005
4.06018e-005
4.07243e-005
4.08432e-005
4.09644e-005
4.10794e-005
4.11845e-005
4.12771e-005
4.1354e-005
4.14093e-005
4.14355e-005
4.14272e-005
4.14011e-005
4.09112e-005
4.10621e-005
4.12236e-005
4.13604e-005
4.14929e-005
4.16279e-005
4.17555e-005
4.18716e-005
4.19733e-005
4.20565e-005
4.21147e-005
4.21392e-005
4.21239e-005
4.20894e-005
4.14716e-005
4.16414e-005
4.1822e-005
4.19744e-005
4.21219e-005
4.22719e-005
4.24134e-005
4.25415e-005
4.26528e-005
4.27429e-005
4.28042e-005
4.28268e-005
4.28039e-005
4.27599e-005
4.20017e-005
4.21923e-005
4.23941e-005
4.25635e-005
4.27274e-005
4.28938e-005
4.30504e-005
4.31916e-005
4.33135e-005
4.34112e-005
4.3476e-005
4.34967e-005
4.34654e-005
4.3411e-005
4.24981e-005
4.27116e-005
4.29366e-005
4.3125e-005
4.33068e-005
4.34913e-005
4.36643e-005
4.38198e-005
4.39534e-005
4.40593e-005
4.4128e-005
4.41467e-005
4.41064e-005
4.40403e-005
4.29574e-005
4.31961e-005
4.34466e-005
4.36555e-005
4.3857e-005
4.40613e-005
4.42524e-005
4.44235e-005
4.45698e-005
4.46848e-005
4.47577e-005
4.47743e-005
4.47242e-005
4.46453e-005
4.33765e-005
4.36427e-005
4.3921e-005
4.41523e-005
4.43751e-005
4.46008e-005
4.48117e-005
4.49998e-005
4.51599e-005
4.52848e-005
4.53624e-005
4.53767e-005
4.5316e-005
4.52232e-005
4.37524e-005
4.40486e-005
4.43571e-005
4.46127e-005
4.48586e-005
4.51076e-005
4.53398e-005
4.55463e-005
4.57213e-005
4.58569e-005
4.59395e-005
4.59511e-005
4.58786e-005
4.57704e-005
4.40824e-005
4.44112e-005
4.47525e-005
4.50344e-005
4.53052e-005
4.55795e-005
4.58346e-005
4.6061e-005
4.6252e-005
4.63988e-005
4.64864e-005
4.64947e-005
4.64091e-005
4.62841e-005
4.43643e-005
4.47283e-005
4.51049e-005
4.54151e-005
4.57128e-005
4.60142e-005
4.6294e-005
4.65416e-005
4.67497e-005
4.69084e-005
4.70011e-005
4.70056e-005
4.69056e-005
4.67622e-005
4.45966e-005
4.49984e-005
4.5413e-005
4.57534e-005
4.60799e-005
4.64103e-005
4.67165e-005
4.69869e-005
4.72132e-005
4.73847e-005
4.74827e-005
4.74828e-005
4.73671e-005
4.72041e-005
4.47784e-005
4.52209e-005
4.56761e-005
4.60489e-005
4.64062e-005
4.67676e-005
4.71022e-005
4.73969e-005
4.76427e-005
4.78276e-005
4.79313e-005
4.79265e-005
4.77937e-005
4.76095e-005
4.49102e-005
4.53962e-005
4.58948e-005
4.63022e-005
4.66925e-005
4.70871e-005
4.74519e-005
4.77726e-005
4.8039e-005
4.8238e-005
4.83473e-005
4.83368e-005
4.81852e-005
4.79781e-005
4.49933e-005
4.55257e-005
4.60705e-005
4.65147e-005
4.694e-005
4.73699e-005
4.77669e-005
4.8115e-005
4.84032e-005
4.8617e-005
4.87317e-005
4.87146e-005
4.85424e-005
4.83104e-005
4.50295e-005
4.56113e-005
4.6205e-005
4.66882e-005
4.71505e-005
4.76177e-005
4.80485e-005
4.84254e-005
4.87363e-005
4.89653e-005
4.90854e-005
4.90608e-005
4.88661e-005
4.86074e-005
4.50212e-005
4.56551e-005
4.63006e-005
4.68247e-005
4.73259e-005
4.78322e-005
4.82983e-005
4.87052e-005
4.90395e-005
4.9284e-005
4.94092e-005
4.9376e-005
4.91568e-005
4.88691e-005
4.49713e-005
4.56601e-005
4.63601e-005
4.69272e-005
4.74688e-005
4.80157e-005
4.85185e-005
4.89562e-005
4.93144e-005
4.95744e-005
4.97042e-005
4.96609e-005
4.94149e-005
4.90956e-005
4.48818e-005
4.56282e-005
4.63853e-005
4.69971e-005
4.75808e-005
4.81697e-005
4.871e-005
4.91792e-005
4.95615e-005
4.98365e-005
4.99698e-005
4.99149e-005
4.96393e-005
4.92856e-005
4.47553e-005
4.55618e-005
4.63783e-005
4.70365e-005
4.76638e-005
4.82962e-005
4.88753e-005
4.93767e-005
4.97833e-005
5.00733e-005
5.02093e-005
5.01411e-005
4.98332e-005
4.94419e-005
4.45941e-005
4.54629e-005
4.63409e-005
4.70469e-005
4.77189e-005
4.83959e-005
4.90147e-005
4.9549e-005
4.99803e-005
5.0285e-005
5.04229e-005
5.03397e-005
4.99968e-005
4.95651e-005
4.44014e-005
4.53344e-005
4.62758e-005
4.70308e-005
4.77486e-005
4.84711e-005
4.91303e-005
4.96977e-005
5.01538e-005
5.04729e-005
5.0612e-005
5.05124e-005
5.01323e-005
4.96573e-005
4.41808e-005