/*--------------------------------*- C++ -*----------------------------------*\
| =========                 |                                                 |
| \\      /  F ield         | OpenFOAM: The Open Source CFD Toolbox           |
|  \\    /   O peration     | Version:  5.x                                   |
|   \\  /    A nd           | Web:      www.OpenFOAM.org                      |
|    \\/     M anipulation  |                                                 |
\*---------------------------------------------------------------------------*/
/*   Windows 32 and 64 bit porting by blueCAPE: http://www.bluecape.com.pt   *\
|  Based on Windows porting (2.0.x v4) by Symscape: http://www.symscape.com   |
\*---------------------------------------------------------------------------*/
FoamFile
{
    version     2.0;
    format      ascii;
    class       volScalarField;
    location    "0.2";
    object      p;
}
// * * * * * * * * * * * * * * * * * * * * * * * * * * * * * * * * * * * * * //

dimensions      [0 2 -2 0 0 0 0];

internalField   nonuniform List<scalar> 
141075
(
9.43782e-007
9.45616e-007
9.46274e-007
9.46992e-007
9.47519e-007
9.47919e-007
9.48257e-007
9.48567e-007
9.48864e-007
9.49148e-007
9.49399e-007
9.49575e-007
9.49636e-007
9.49439e-007
2.87907e-006
2.88122e-006
2.8824e-006
2.88338e-006
2.88411e-006
2.88466e-006
2.88506e-006
2.88536e-006
2.88557e-006
2.88571e-006
2.88572e-006
2.88557e-006
2.88519e-006
2.88463e-006
4.86269e-006
4.86208e-006
4.86149e-006
4.86107e-006
4.86069e-006
4.86027e-006
4.85978e-006
4.85923e-006
4.85861e-006
4.85794e-006
4.8572e-006
4.85638e-006
4.85551e-006
4.85484e-006
6.85279e-006
6.85194e-006
6.85074e-006
6.84962e-006
6.84852e-006
6.84738e-006
6.84619e-006
6.84494e-006
6.84366e-006
6.84235e-006
6.84102e-006
6.83967e-006
6.83834e-006
6.83733e-006
8.84611e-006
8.84494e-006
8.84327e-006
8.84162e-006
8.83994e-006
8.83819e-006
8.83637e-006
8.83451e-006
8.83261e-006
8.83071e-006
8.82882e-006
8.82695e-006
8.82513e-006
8.82374e-006
1.08444e-005
1.0843e-005
1.08409e-005
1.08388e-005
1.08368e-005
1.08346e-005
1.08323e-005
1.08299e-005
1.08275e-005
1.08252e-005
1.08228e-005
1.08205e-005
1.08182e-005
1.08164e-005
1.28485e-005
1.28468e-005
1.28444e-005
1.28419e-005
1.28395e-005
1.28369e-005
1.28342e-005
1.28314e-005
1.28286e-005
1.28258e-005
1.2823e-005
1.28202e-005
1.28175e-005
1.28153e-005
1.48592e-005
1.48573e-005
1.48545e-005
1.48517e-005
1.48489e-005
1.4846e-005
1.48429e-005
1.48398e-005
1.48366e-005
1.48333e-005
1.48301e-005
1.4827e-005
1.48239e-005
1.48213e-005
1.68768e-005
1.68747e-005
1.68715e-005
1.68685e-005
1.68653e-005
1.68621e-005
1.68587e-005
1.68552e-005
1.68517e-005
1.68481e-005
1.68446e-005
1.68411e-005
1.68376e-005
1.68348e-005
1.89018e-005
1.88995e-005
1.8896e-005
1.88926e-005
1.88892e-005
1.88856e-005
1.88819e-005
1.88781e-005
1.88743e-005
1.88705e-005
1.88667e-005
1.88629e-005
1.88592e-005
1.8856e-005
2.09343e-005
2.09317e-005
2.09279e-005
2.09242e-005
2.09205e-005
2.09166e-005
2.09127e-005
2.09087e-005
2.09046e-005
2.09005e-005
2.08965e-005
2.08924e-005
2.08885e-005
2.08851e-005
2.29741e-005
2.29714e-005
2.29672e-005
2.29632e-005
2.29592e-005
2.29551e-005
2.29509e-005
2.29467e-005
2.29424e-005
2.29381e-005
2.29339e-005
2.29296e-005
2.29255e-005
2.2922e-005
2.5021e-005
2.5018e-005
2.50135e-005
2.50092e-005
2.50049e-005
2.50006e-005
2.49962e-005
2.49918e-005
2.49873e-005
2.49829e-005
2.49785e-005
2.49741e-005
2.49698e-005
2.49662e-005
2.70743e-005
2.70711e-005
2.70662e-005
2.70616e-005
2.70571e-005
2.70525e-005
2.70479e-005
2.70433e-005
2.70388e-005
2.70342e-005
2.70297e-005
2.70252e-005
2.70209e-005
2.70171e-005
2.91331e-005
2.91297e-005
2.91244e-005
2.91195e-005
2.91148e-005
2.911e-005
2.91053e-005
2.91005e-005
2.90959e-005
2.90913e-005
2.90867e-005
2.90822e-005
2.90777e-005
2.90739e-005
3.11963e-005
3.11928e-005
3.11871e-005
3.11819e-005
3.11769e-005
3.1172e-005
3.11672e-005
3.11624e-005
3.11577e-005
3.1153e-005
3.11484e-005
3.11439e-005
3.11394e-005
3.11355e-005
3.32627e-005
3.32589e-005
3.32529e-005
3.32474e-005
3.32423e-005
3.32372e-005
3.32322e-005
3.32274e-005
3.32227e-005
3.32181e-005
3.32136e-005
3.3209e-005
3.32045e-005
3.32005e-005
3.53305e-005
3.53265e-005
3.53201e-005
3.53144e-005
3.5309e-005
3.53039e-005
3.52989e-005
3.5294e-005
3.52894e-005
3.52848e-005
3.52804e-005
3.52758e-005
3.52713e-005
3.52672e-005
3.73978e-005
3.73936e-005
3.73869e-005
3.73809e-005
3.73754e-005
3.73702e-005
3.73651e-005
3.73603e-005
3.73557e-005
3.73512e-005
3.73468e-005
3.73424e-005
3.73378e-005
3.73336e-005
3.94625e-005
3.94581e-005
3.94511e-005
3.94449e-005
3.94393e-005
3.94339e-005
3.94289e-005
3.94241e-005
3.94196e-005
3.94153e-005
3.9411e-005
3.94066e-005
3.94019e-005
3.93976e-005
4.15223e-005
4.15177e-005
4.15104e-005
4.1504e-005
4.14982e-005
4.14929e-005
4.14879e-005
4.14832e-005
4.14788e-005
4.14746e-005
4.14705e-005
4.14662e-005
4.14614e-005
4.14569e-005
4.35745e-005
4.35698e-005
4.35621e-005
4.35555e-005
4.35497e-005
4.35443e-005
4.35394e-005
4.35349e-005
4.35307e-005
4.35266e-005
4.35227e-005
4.35184e-005
4.35136e-005
4.35089e-005
4.56163e-005
4.56114e-005
4.56035e-005
4.55967e-005
4.55908e-005
4.55855e-005
4.55806e-005
4.55762e-005
4.55722e-005
4.55684e-005
4.55646e-005
4.55605e-005
4.55556e-005
4.55506e-005
4.76447e-005
4.76397e-005
4.76314e-005
4.76245e-005
4.76185e-005
4.76132e-005
4.76085e-005
4.76043e-005
4.76005e-005
4.7597e-005
4.75934e-005
4.75893e-005
4.75844e-005
4.75792e-005
4.96566e-005
4.96514e-005
4.96429e-005
4.96358e-005
4.96298e-005
4.96246e-005
4.962e-005
4.9616e-005
4.96124e-005
4.96091e-005
4.96057e-005
4.96018e-005
4.95967e-005
4.95912e-005
5.16487e-005
5.16434e-005
5.16346e-005
5.16273e-005
5.16213e-005
5.16161e-005
5.16117e-005
5.16079e-005
5.16045e-005
5.16015e-005
5.15983e-005
5.15945e-005
5.15892e-005
5.15835e-005
5.36179e-005
5.36123e-005
5.36032e-005
5.35957e-005
5.35896e-005
5.35845e-005
5.35802e-005
5.35766e-005
5.35736e-005
5.35708e-005
5.35678e-005
5.35641e-005
5.35588e-005
5.35529e-005
5.55607e-005
5.55549e-005
5.55454e-005
5.55378e-005
5.55316e-005
5.55265e-005
5.55223e-005
5.55189e-005
5.55161e-005
5.55136e-005
5.55109e-005
5.55074e-005
5.55021e-005
5.54959e-005
5.7474e-005
5.7468e-005
5.74581e-005
5.74502e-005
5.74439e-005
5.74388e-005
5.74347e-005
5.74315e-005
5.74289e-005
5.74267e-005
5.74243e-005
5.74209e-005
5.74156e-005
5.74092e-005
5.93548e-005
5.93486e-005
5.93383e-005
5.93301e-005
5.93236e-005
5.93185e-005
5.93144e-005
5.93113e-005
5.9309e-005
5.93069e-005
5.93047e-005
5.93016e-005
5.92962e-005
5.92896e-005
6.12004e-005
6.11938e-005
6.1183e-005
6.11745e-005
6.11679e-005
6.11626e-005
6.11586e-005
6.11556e-005
6.11534e-005
6.11516e-005
6.11496e-005
6.11466e-005
6.11412e-005
6.11346e-005
6.30079e-005
6.30011e-005
6.29898e-005
6.29809e-005
6.29741e-005
6.29687e-005
6.29647e-005
6.29618e-005
6.29598e-005
6.29582e-005
6.29564e-005
6.29536e-005
6.29483e-005
6.29416e-005
6.47751e-005
6.47679e-005
6.47561e-005
6.47468e-005
6.47397e-005
6.47343e-005
6.47302e-005
6.47274e-005
6.47255e-005
6.47241e-005
6.47227e-005
6.47201e-005
6.47148e-005
6.47082e-005
6.64995e-005
6.64919e-005
6.64796e-005
6.64699e-005
6.64626e-005
6.6457e-005
6.64529e-005
6.64502e-005
6.64484e-005
6.64472e-005
6.6446e-005
6.64436e-005
6.64385e-005
6.64319e-005
6.81789e-005
6.81709e-005
6.8158e-005
6.8148e-005
6.81404e-005
6.81346e-005
6.81305e-005
6.81278e-005
6.81263e-005
6.81253e-005
6.81243e-005
6.81222e-005
6.81173e-005
6.81107e-005
6.98109e-005
6.98026e-005
6.97892e-005
6.97787e-005
6.97709e-005
6.9765e-005
6.97609e-005
6.97583e-005
6.97569e-005
6.97562e-005
6.97555e-005
6.97537e-005
6.97489e-005
6.97425e-005
7.13934e-005
7.13847e-005
7.13707e-005
7.13599e-005
7.13518e-005
7.13458e-005
7.13417e-005
7.13393e-005
7.13381e-005
7.13377e-005
7.13374e-005
7.13359e-005
7.13314e-005
7.13251e-005
7.29237e-005
7.29147e-005
7.29001e-005
7.28889e-005
7.28807e-005
7.28746e-005
7.28706e-005
7.28683e-005
7.28674e-005
7.28674e-005
7.28675e-005
7.28665e-005
7.28623e-005
7.28563e-005
7.43996e-005
7.43901e-005
7.4375e-005
7.43635e-005
7.4355e-005
7.43489e-005
7.4345e-005
7.43429e-005
7.43424e-005
7.43429e-005
7.43435e-005
7.43429e-005
7.43391e-005
7.43334e-005
7.58187e-005
7.58088e-005
7.57931e-005
7.57813e-005
7.57726e-005
7.57665e-005
7.57626e-005
7.57608e-005
7.57607e-005
7.57616e-005
7.57628e-005
7.57628e-005
7.57595e-005
7.57541e-005
7.71793e-005
7.7169e-005
7.71527e-005
7.71405e-005
7.71316e-005
7.71255e-005
7.71217e-005
7.71202e-005
7.71204e-005
7.71219e-005
7.71237e-005
7.71243e-005
7.71214e-005
7.71165e-005
7.84805e-005
7.84696e-005
7.84528e-005
7.84402e-005
7.84311e-005
7.84249e-005
7.84212e-005
7.84199e-005
7.84205e-005
7.84225e-005
7.84249e-005
7.84261e-005
7.84238e-005
7.84192e-005
7.97224e-005
7.97111e-005
7.96937e-005
7.96806e-005
7.96713e-005
7.9665e-005
7.96613e-005
7.96601e-005
7.96611e-005
7.96635e-005
7.96665e-005
7.96684e-005
7.96665e-005
7.96623e-005
8.0907e-005
8.08951e-005
8.0877e-005
8.08635e-005
8.08539e-005
8.08473e-005
8.08436e-005
8.08424e-005
8.08436e-005
8.08463e-005
8.08499e-005
8.08523e-005
8.08509e-005
8.08472e-005
8.20378e-005
8.20251e-005
8.20064e-005
8.19923e-005
8.19823e-005
8.19753e-005
8.19713e-005
8.19701e-005
8.19712e-005
8.19742e-005
8.19781e-005
8.19811e-005
8.19802e-005
8.19769e-005
8.31201e-005
8.31067e-005
8.30872e-005
8.30724e-005
8.30618e-005
8.30543e-005
8.30499e-005
8.30483e-005
8.30492e-005
8.30522e-005
8.30563e-005
8.30597e-005
8.30591e-005
8.30563e-005
8.41609e-005
8.41468e-005
8.41264e-005
8.41109e-005
8.40995e-005
8.40913e-005
8.40862e-005
8.40839e-005
8.40844e-005
8.4087e-005
8.4091e-005
8.40944e-005
8.40941e-005
8.40918e-005
8.51684e-005
8.51535e-005
8.51323e-005
8.5116e-005
8.51037e-005
8.50946e-005
8.50885e-005
8.50853e-005
8.50849e-005
8.50869e-005
8.50903e-005
8.50935e-005
8.50931e-005
8.50911e-005
8.61512e-005
8.61356e-005
8.61136e-005
8.60963e-005
8.60831e-005
8.60729e-005
8.60656e-005
8.60613e-005
8.60598e-005
8.60606e-005
8.60632e-005
8.60657e-005
8.6065e-005
8.60632e-005
8.71171e-005
8.71009e-005
8.70782e-005
8.70601e-005
8.70459e-005
8.70346e-005
8.70261e-005
8.70204e-005
8.70175e-005
8.70171e-005
8.70184e-005
8.702e-005
8.70188e-005
8.70171e-005
8.80727e-005
8.80561e-005
8.80328e-005
8.80139e-005
8.79989e-005
8.79866e-005
8.79769e-005
8.79699e-005
8.79656e-005
8.79638e-005
8.79638e-005
8.79643e-005
8.79625e-005
8.79608e-005
8.90217e-005
8.90049e-005
8.89812e-005
8.89619e-005
8.89463e-005
8.89331e-005
8.89225e-005
8.89145e-005
8.8909e-005
8.89059e-005
8.89046e-005
8.8904e-005
8.89016e-005
8.88998e-005
8.99644e-005
8.99477e-005
8.9924e-005
8.99045e-005
8.98886e-005
8.9875e-005
8.98638e-005
8.9855e-005
8.98486e-005
8.98445e-005
8.98422e-005
8.98406e-005
8.98376e-005
8.98357e-005
9.08971e-005
9.08807e-005
9.08574e-005
9.08381e-005
9.08222e-005
9.08085e-005
9.07971e-005
9.0788e-005
9.07811e-005
9.07763e-005
9.07732e-005
9.07708e-005
9.07674e-005
9.07653e-005
9.18122e-005
9.17964e-005
9.17737e-005
9.17549e-005
9.17393e-005
9.17259e-005
9.17146e-005
9.17055e-005
9.16984e-005
9.16931e-005
9.16894e-005
9.16863e-005
9.16826e-005
9.16803e-005
9.26986e-005
9.26837e-005
9.26619e-005
9.26437e-005
9.26286e-005
9.26157e-005
9.26047e-005
9.25957e-005
9.25886e-005
9.25831e-005
9.25788e-005
9.2575e-005
9.2571e-005
9.25683e-005
9.35434e-005
9.35295e-005
9.35088e-005
9.34915e-005
9.3477e-005
9.34646e-005
9.3454e-005
9.34452e-005
9.34379e-005
9.34321e-005
9.34273e-005
9.34227e-005
9.34181e-005
9.3415e-005
9.43333e-005
9.43206e-005
9.43011e-005
9.42846e-005
9.42708e-005
9.42589e-005
9.42486e-005
9.42399e-005
9.42325e-005
9.42262e-005
9.42206e-005
9.42152e-005
9.42099e-005
9.4206e-005
9.5056e-005
9.50446e-005
9.50264e-005
9.50108e-005
9.49977e-005
9.49862e-005
9.49761e-005
9.49673e-005
9.49597e-005
9.49529e-005
9.49466e-005
9.49402e-005
9.49342e-005
9.49291e-005
9.5702e-005
9.56918e-005
9.5675e-005
9.56604e-005
9.56478e-005
9.56366e-005
9.56267e-005
9.56178e-005
9.56098e-005
9.56025e-005
9.55955e-005
9.55882e-005
9.55812e-005
9.55749e-005
9.62651e-005
9.62563e-005
9.62409e-005
9.62271e-005
9.6215e-005
9.62039e-005
9.61939e-005
9.61846e-005
9.61761e-005
9.61681e-005
9.61601e-005
9.61517e-005
9.61436e-005
9.61357e-005
9.67423e-005
9.67349e-005
9.67211e-005
9.67083e-005
9.66964e-005
9.66853e-005
9.66747e-005
9.66646e-005
9.66549e-005
9.66454e-005
9.66358e-005
9.66256e-005
9.66157e-005
9.66057e-005
9.71314e-005
9.71257e-005
9.71137e-005
9.71021e-005
9.70906e-005
9.70793e-005
9.70679e-005
9.70565e-005
9.70449e-005
9.70331e-005
9.70208e-005
9.70077e-005
9.69951e-005
9.69826e-005
9.74271e-005
9.74235e-005
9.7414e-005
9.74042e-005
9.73938e-005
9.73829e-005
9.73714e-005
9.73591e-005
9.73459e-005
9.73318e-005
9.73167e-005
9.73007e-005
9.72853e-005
9.72707e-005
9.76199e-005
9.76186e-005
9.76124e-005
9.76055e-005
9.75978e-005
9.75893e-005
9.75798e-005
9.75691e-005
9.7557e-005
9.75435e-005
9.75285e-005
9.75123e-005
9.74968e-005
9.74826e-005
9.76992e-005
9.77004e-005
9.76983e-005
9.7696e-005
9.76934e-005
9.76906e-005
9.76871e-005
9.76828e-005
9.76774e-005
9.76707e-005
9.76624e-005
9.76529e-005
9.76436e-005
9.76347e-005
9.76622e-005
9.76657e-005
9.76686e-005
9.76728e-005
9.76783e-005
9.7685e-005
9.76926e-005
9.77008e-005
9.77092e-005
9.77175e-005
9.77249e-005
9.77311e-005
9.7736e-005
9.77387e-005
9.75199e-005
9.75258e-005
9.75347e-005
9.75474e-005
9.75637e-005
9.75833e-005
9.76063e-005
9.76321e-005
9.76604e-005
9.76902e-005
9.77204e-005
9.77496e-005
9.77752e-005
9.77943e-005
9.72947e-005
9.73037e-005
9.732e-005
9.73427e-005
9.73715e-005
9.74062e-005
9.74467e-005
9.74925e-005
9.75429e-005
9.75966e-005
9.76519e-005
9.7706e-005
9.77537e-005
9.77905e-005
9.70083e-005
9.70216e-005
9.70466e-005
9.70804e-005
9.71223e-005
9.71722e-005
9.72299e-005
9.72948e-005
9.7366e-005
9.74416e-005
9.75192e-005
9.75954e-005
9.76625e-005
9.7715e-005
9.66689e-005
9.6688e-005
9.67229e-005
9.67682e-005
9.68228e-005
9.68868e-005
9.69601e-005
9.70418e-005
9.71308e-005
9.72248e-005
9.73209e-005
9.74153e-005
9.74984e-005
9.75643e-005
9.62695e-005
9.62957e-005
9.63417e-005
9.63987e-005
9.64657e-005
9.65432e-005
9.66309e-005
9.67281e-005
9.68333e-005
9.69441e-005
9.70574e-005
9.71687e-005
9.72668e-005
9.73451e-005
9.57941e-005
9.5829e-005
9.58878e-005
9.59579e-005
9.60385e-005
9.61306e-005
9.6234e-005
9.6348e-005
9.64712e-005
9.66008e-005
9.67333e-005
9.68636e-005
9.69777e-005
9.70681e-005
9.52243e-005
9.52701e-005
9.53447e-005
9.54309e-005
9.55281e-005
9.56383e-005
9.57614e-005
9.58967e-005
9.60423e-005
9.61954e-005
9.63513e-005
9.65037e-005
9.6635e-005
9.67356e-005
9.45377e-005
9.45977e-005
9.46922e-005
9.47987e-005
9.4917e-005
9.50501e-005
9.51979e-005
9.53597e-005
9.55332e-005
9.57146e-005
9.58981e-005
9.60754e-005
9.6224e-005
9.63313e-005
9.37033e-005
9.37815e-005
9.39009e-005
9.40324e-005
9.41763e-005
9.43369e-005
9.4514e-005
9.47067e-005
9.49122e-005
9.51257e-005
9.53398e-005
9.55438e-005
9.5709e-005
9.58189e-005
9.26814e-005
9.27829e-005
9.2933e-005
9.30946e-005
9.32686e-005
9.3461e-005
9.36715e-005
9.38987e-005
9.41394e-005
9.43879e-005
9.46349e-005
9.48668e-005
9.50472e-005
9.51552e-005
9.14286e-005
9.15602e-005
9.1749e-005
9.19471e-005
9.21565e-005
9.23856e-005
9.26338e-005
9.28996e-005
9.31795e-005
9.34666e-005
9.37501e-005
9.40125e-005
9.42076e-005
9.43089e-005
8.99006e-005
9.00721e-005
9.03106e-005
9.05537e-005
9.08054e-005
9.10777e-005
9.13694e-005
9.16793e-005
9.20041e-005
9.23365e-005
9.2664e-005
9.29641e-005
9.31772e-005
9.32676e-005
8.80493e-005
8.8274e-005
8.85776e-005
8.88781e-005
8.91823e-005
8.95074e-005
8.98517e-005
9.02149e-005
9.05943e-005
9.09831e-005
9.13669e-005
9.17174e-005
9.19549e-005
9.20297e-005
8.58234e-005
8.61186e-005
8.65078e-005
8.68833e-005
8.72564e-005
8.76509e-005
8.80643e-005
8.84972e-005
8.89481e-005
8.94101e-005
8.98669e-005
9.02816e-005
9.05475e-005
9.05948e-005
8.31836e-005
8.35709e-005
8.40721e-005
8.45459e-005
8.501e-005
8.54971e-005
8.6003e-005
8.65288e-005
8.70736e-005
8.76303e-005
8.81788e-005
8.86712e-005
8.89653e-005
8.89649e-005
8.0122e-005
8.06282e-005
8.12735e-005
8.18724e-005
8.24516e-005
8.30549e-005
8.36757e-005
8.4316e-005
8.49757e-005
8.56477e-005
8.63081e-005
8.68953e-005
8.7221e-005
8.71526e-005
7.66592e-005
7.7316e-005
7.81418e-005
7.88942e-005
7.96116e-005
8.03525e-005
8.11073e-005
8.18793e-005
8.26712e-005
8.34777e-005
8.42723e-005
8.49765e-005
8.53421e-005
8.51862e-005
7.28363e-005
7.36778e-005
7.47221e-005
7.5657e-005
7.65362e-005
7.74372e-005
7.83464e-005
7.92699e-005
8.02146e-005
8.11781e-005
8.21306e-005
8.29729e-005
8.33812e-005
8.31083e-005
6.87298e-005
6.97905e-005
7.10912e-005
7.22369e-005
7.33011e-005
7.43846e-005
7.54699e-005
7.65663e-005
7.76855e-005
7.88281e-005
7.99594e-005
8.09546e-005
8.14005e-005
8.09739e-005
6.44649e-005
6.5776e-005
6.73671e-005
6.87471e-005
7.00142e-005
7.12974e-005
7.25749e-005
7.38599e-005
7.51693e-005
7.65067e-005
7.78319e-005
7.89908e-005
7.94685e-005
7.88544e-005
6.0209e-005
6.17936e-005
6.3698e-005
6.53269e-005
6.68061e-005
6.8297e-005
6.97734e-005
7.12535e-005
7.27602e-005
7.43009e-005
7.58292e-005
7.71591e-005
7.76631e-005
7.68332e-005
5.61672e-005
5.80346e-005
6.02611e-005
6.21421e-005
6.38337e-005
6.55303e-005
6.72003e-005
6.8867e-005
7.05613e-005
7.22969e-005
7.40234e-005
7.55216e-005
7.60445e-005
7.49814e-005
5.2574e-005
5.4715e-005
5.72521e-005
5.93742e-005
6.12652e-005
6.31512e-005
6.4994e-005
6.68219e-005
6.86757e-005
7.0578e-005
7.24773e-005
7.41224e-005
7.46479e-005
7.33471e-005
4.96689e-005
5.20481e-005
5.48551e-005
5.71847e-005
5.92439e-005
6.12865e-005
6.32684e-005
6.52229e-005
6.71996e-005
6.92285e-005
7.12565e-005
7.30045e-005
7.35035e-005
7.19733e-005
4.7671e-005
5.02231e-005
5.32253e-005
5.57028e-005
5.78816e-005
6.00359e-005
6.21152e-005
6.41536e-005
6.62039e-005
6.83012e-005
7.03943e-005
7.21857e-005
7.26292e-005
7.09028e-005
4.67565e-005
4.93891e-005
5.24824e-005
5.50274e-005
5.72601e-005
5.94637e-005
6.15804e-005
6.36422e-005
6.57038e-005
6.78042e-005
6.98942e-005
7.16653e-005
7.20293e-005
7.01674e-005
4.70198e-005
4.96196e-005
5.26792e-005
5.51973e-005
5.74028e-005
5.95737e-005
6.16507e-005
6.36669e-005
6.56786e-005
6.77237e-005
6.97485e-005
7.14391e-005
7.17111e-005
6.98019e-005
4.84282e-005
5.08692e-005
5.37558e-005
5.61457e-005
5.82461e-005
6.03137e-005
6.22902e-005
6.42058e-005
6.61119e-005
6.80392e-005
6.99323e-005
7.1489e-005
7.16797e-005
6.98413e-005
5.0778e-005
5.29313e-005
5.55048e-005
5.76698e-005
5.95987e-005
6.15128e-005
6.33553e-005
6.5144e-005
6.69137e-005
6.8684e-005
7.04008e-005
7.1786e-005
7.19185e-005
7.028e-005
5.36902e-005
5.54647e-005
5.76302e-005
5.95155e-005
6.12451e-005
6.29894e-005
6.46925e-005
6.63557e-005
6.79941e-005
6.9609e-005
7.11392e-005
7.23362e-005
7.24365e-005
7.11023e-005
5.65332e-005
5.78751e-005
5.96017e-005
6.12119e-005
6.27676e-005
6.43688e-005
6.59642e-005
6.75433e-005
6.9102e-005
7.06156e-005
7.2004e-005
7.30438e-005
7.31412e-005
7.21557e-005
5.88472e-005
5.98463e-005
6.1296e-005
6.27975e-005
6.4337e-005
6.59446e-005
6.75774e-005
6.92066e-005
7.07931e-005
7.22705e-005
7.35351e-005
7.43832e-005
7.43706e-005
7.35625e-005
9.42794e-007
9.44944e-007
9.45891e-007
9.46666e-007
9.47204e-007
9.47596e-007
9.4791e-007
9.48184e-007
9.48435e-007
9.48668e-007
9.48869e-007
9.48998e-007
9.48975e-007
9.48638e-007
2.87651e-006
2.87891e-006
2.88026e-006
2.88132e-006
2.8821e-006
2.88266e-006
2.88306e-006
2.88334e-006
2.88353e-006
2.88364e-006
2.88364e-006
2.8835e-006
2.88311e-006
2.88247e-006
4.86021e-006
4.85967e-006
4.85918e-006
4.85883e-006
4.8585e-006
4.85811e-006
4.85764e-006
4.85709e-006
4.85648e-006
4.85579e-006
4.85504e-006
4.85421e-006
4.8533e-006
4.85252e-006
6.84981e-006
6.84902e-006
6.84792e-006
6.84686e-006
6.8458e-006
6.84469e-006
6.84351e-006
6.84227e-006
6.84098e-006
6.83964e-006
6.83828e-006
6.8369e-006
6.83552e-006
6.83442e-006
8.84255e-006
8.84144e-006
8.83985e-006
8.83826e-006
8.83665e-006
8.83494e-006
8.83315e-006
8.83129e-006
8.82938e-006
8.82745e-006
8.82552e-006
8.82363e-006
8.82177e-006
8.82032e-006
1.08402e-005
1.08388e-005
1.08369e-005
1.08349e-005
1.08328e-005
1.08307e-005
1.08284e-005
1.08261e-005
1.08237e-005
1.08213e-005
1.08189e-005
1.08165e-005
1.08143e-005
1.08125e-005
1.28436e-005
1.2842e-005
1.28397e-005
1.28373e-005
1.28349e-005
1.28323e-005
1.28297e-005
1.28269e-005
1.28241e-005
1.28212e-005
1.28184e-005
1.28157e-005
1.28131e-005
1.28109e-005
1.48535e-005
1.48517e-005
1.4849e-005
1.48463e-005
1.48436e-005
1.48407e-005
1.48377e-005
1.48345e-005
1.48313e-005
1.48281e-005
1.48249e-005
1.48219e-005
1.48189e-005
1.48165e-005
1.68704e-005
1.68683e-005
1.68653e-005
1.68623e-005
1.68593e-005
1.68561e-005
1.68527e-005
1.68492e-005
1.68457e-005
1.68422e-005
1.68387e-005
1.68353e-005
1.68321e-005
1.68295e-005
1.88945e-005
1.88923e-005
1.8889e-005
1.88857e-005
1.88823e-005
1.88788e-005
1.88751e-005
1.88714e-005
1.88676e-005
1.88638e-005
1.88601e-005
1.88565e-005
1.88531e-005
1.88503e-005
2.09261e-005
2.09237e-005
2.092e-005
2.09164e-005
2.09128e-005
2.0909e-005
2.09051e-005
2.09011e-005
2.08971e-005
2.08931e-005
2.08892e-005
2.08854e-005
2.08819e-005
2.0879e-005
2.2965e-005
2.29624e-005
2.29584e-005
2.29545e-005
2.29506e-005
2.29466e-005
2.29424e-005
2.29382e-005
2.2934e-005
2.29299e-005
2.29258e-005
2.29219e-005
2.29183e-005
2.29153e-005
2.50109e-005
2.50081e-005
2.50038e-005
2.49996e-005
2.49954e-005
2.49912e-005
2.49868e-005
2.49824e-005
2.49781e-005
2.49738e-005
2.49696e-005
2.49657e-005
2.4962e-005
2.4959e-005
2.70632e-005
2.70601e-005
2.70555e-005
2.7051e-005
2.70466e-005
2.70421e-005
2.70376e-005
2.7033e-005
2.70285e-005
2.70242e-005
2.702e-005
2.7016e-005
2.70123e-005
2.70092e-005
2.91209e-005
2.91176e-005
2.91126e-005
2.91079e-005
2.91032e-005
2.90986e-005
2.90939e-005
2.90892e-005
2.90846e-005
2.90802e-005
2.9076e-005
2.9072e-005
2.90684e-005
2.90653e-005
3.1183e-005
3.11796e-005
3.11742e-005
3.11692e-005
3.11643e-005
3.11595e-005
3.11547e-005
3.11499e-005
3.11453e-005
3.11409e-005
3.11367e-005
3.11328e-005
3.11292e-005
3.1126e-005
3.32481e-005
3.32445e-005
3.32388e-005
3.32335e-005
3.32285e-005
3.32235e-005
3.32186e-005
3.32138e-005
3.32092e-005
3.32048e-005
3.32007e-005
3.31968e-005
3.31933e-005
3.31901e-005
3.53146e-005
3.53108e-005
3.53048e-005
3.52992e-005
3.5294e-005
3.52889e-005
3.52839e-005
3.52791e-005
3.52746e-005
3.52702e-005
3.52662e-005
3.52624e-005
3.52589e-005
3.52558e-005
3.73805e-005
3.73765e-005
3.73702e-005
3.73644e-005
3.73591e-005
3.73539e-005
3.73489e-005
3.73441e-005
3.73395e-005
3.73353e-005
3.73313e-005
3.73277e-005
3.73242e-005
3.73209e-005
3.94438e-005
3.94396e-005
3.9433e-005
3.94271e-005
3.94215e-005
3.94163e-005
3.94113e-005
3.94065e-005
3.94021e-005
3.93979e-005
3.93941e-005
3.93905e-005
3.9387e-005
3.93837e-005
4.15021e-005
4.14978e-005
4.14909e-005
4.14847e-005
4.14791e-005
4.14738e-005
4.14688e-005
4.14641e-005
4.14598e-005
4.14558e-005
4.14521e-005
4.14486e-005
4.14451e-005
4.14416e-005
4.35528e-005
4.35483e-005
4.35411e-005
4.35348e-005
4.35291e-005
4.35238e-005
4.35188e-005
4.35143e-005
4.35101e-005
4.35063e-005
4.35027e-005
4.34993e-005
4.34957e-005
4.34921e-005
4.55931e-005
4.55885e-005
4.5581e-005
4.55745e-005
4.55687e-005
4.55634e-005
4.55586e-005
4.55541e-005
4.55501e-005
4.55465e-005
4.55431e-005
4.55398e-005
4.55361e-005
4.55324e-005
4.762e-005
4.76153e-005
4.76075e-005
4.76009e-005
4.7595e-005
4.75898e-005
4.7585e-005
4.75807e-005
4.75769e-005
4.75735e-005
4.75703e-005
4.75671e-005
4.75633e-005
4.75593e-005
4.96305e-005
4.96256e-005
4.96176e-005
4.96108e-005
4.96049e-005
4.95997e-005
4.9595e-005
4.95909e-005
4.95873e-005
4.9584e-005
4.95811e-005
4.95779e-005
4.9574e-005
4.95698e-005
5.16213e-005
5.16163e-005
5.1608e-005
5.1601e-005
5.15951e-005
5.15899e-005
5.15853e-005
5.15814e-005
5.1578e-005
5.1575e-005
5.15722e-005
5.15691e-005
5.15651e-005
5.15606e-005
5.35893e-005
5.3584e-005
5.35754e-005
5.35683e-005
5.35623e-005
5.35571e-005
5.35527e-005
5.35489e-005
5.35457e-005
5.35429e-005
5.35403e-005
5.35374e-005
5.35333e-005
5.35286e-005
5.5531e-005
5.55256e-005
5.55167e-005
5.55094e-005
5.55033e-005
5.54981e-005
5.54937e-005
5.54901e-005
5.54871e-005
5.54846e-005
5.54822e-005
5.54794e-005
5.54752e-005
5.54704e-005
5.74436e-005
5.74379e-005
5.74286e-005
5.7421e-005
5.74148e-005
5.74096e-005
5.74053e-005
5.74019e-005
5.73991e-005
5.73967e-005
5.73945e-005
5.73918e-005
5.73876e-005
5.73826e-005
5.93238e-005
5.93179e-005
5.93082e-005
5.93004e-005
5.9294e-005
5.92887e-005
5.92845e-005
5.92811e-005
5.92784e-005
5.92763e-005
5.92742e-005
5.92717e-005
5.92673e-005
5.92621e-005
6.1169e-005
6.11628e-005
6.11527e-005
6.11446e-005
6.1138e-005
6.11326e-005
6.11283e-005
6.1125e-005
6.11225e-005
6.11205e-005
6.11186e-005
6.11161e-005
6.11118e-005
6.11064e-005
6.29765e-005
6.297e-005
6.29594e-005
6.2951e-005
6.29442e-005
6.29387e-005
6.29344e-005
6.29311e-005
6.29286e-005
6.29268e-005
6.29251e-005
6.29227e-005
6.29183e-005
6.29128e-005
6.47438e-005
6.4737e-005
6.4726e-005
6.47171e-005
6.47101e-005
6.47045e-005
6.47001e-005
6.46968e-005
6.46945e-005
6.46928e-005
6.46912e-005
6.4689e-005
6.46846e-005
6.4679e-005
6.64686e-005
6.64615e-005
6.645e-005
6.64408e-005
6.64335e-005
6.64277e-005
6.64233e-005
6.642e-005
6.64177e-005
6.64161e-005
6.64147e-005
6.64126e-005
6.64082e-005
6.64025e-005
6.81488e-005
6.81414e-005
6.81293e-005
6.81197e-005
6.81122e-005
6.81063e-005
6.81017e-005
6.80984e-005
6.80962e-005
6.80947e-005
6.80935e-005
6.80914e-005
6.8087e-005
6.80812e-005
6.9782e-005
6.97743e-005
6.97617e-005
6.97518e-005
6.9744e-005
6.97379e-005
6.97333e-005
6.973e-005
6.97279e-005
6.97265e-005
6.97254e-005
6.97234e-005
6.9719e-005
6.97131e-005
7.13661e-005
7.1358e-005
7.1345e-005
7.13346e-005
7.13266e-005
7.13204e-005
7.13157e-005
7.13125e-005
7.13104e-005
7.13092e-005
7.13083e-005
7.13065e-005
7.13021e-005
7.1296e-005
7.28987e-005
7.28902e-005
7.28767e-005
7.2866e-005
7.28578e-005
7.28514e-005
7.28467e-005
7.28435e-005
7.28417e-005
7.28407e-005
7.28399e-005
7.28383e-005
7.28339e-005
7.28276e-005
7.43774e-005
7.43686e-005
7.43546e-005
7.43435e-005
7.43351e-005
7.43286e-005
7.43239e-005
7.43208e-005
7.43191e-005
7.43184e-005
7.43179e-005
7.43165e-005
7.43121e-005
7.43056e-005
7.58003e-005
7.57911e-005
7.57765e-005
7.57651e-005
7.57564e-005
7.57498e-005
7.57451e-005
7.57422e-005
7.57407e-005
7.57402e-005
7.574e-005
7.57388e-005
7.57343e-005
7.57276e-005
7.71655e-005
7.71559e-005
7.71408e-005
7.71291e-005
7.71202e-005
7.71134e-005
7.71087e-005
7.71059e-005
7.71045e-005
7.71043e-005
7.71043e-005
7.71033e-005
7.70987e-005
7.70918e-005
7.84723e-005
7.84622e-005
7.84466e-005
7.84345e-005
7.84253e-005
7.84184e-005
7.84137e-005
7.84109e-005
7.84097e-005
7.84096e-005
7.84099e-005
7.84089e-005
7.84041e-005
7.83969e-005
7.97208e-005
7.97103e-005
7.96941e-005
7.96815e-005
7.96721e-005
7.9665e-005
7.96601e-005
7.96573e-005
7.96561e-005
7.96562e-005
7.96565e-005
7.96556e-005
7.96506e-005
7.9643e-005
8.09126e-005
8.09016e-005
8.08848e-005
8.08718e-005
8.0862e-005
8.08546e-005
8.08495e-005
8.08465e-005
8.08453e-005
8.08454e-005
8.08458e-005
8.08448e-005
8.08394e-005
8.08315e-005
8.20511e-005
8.20394e-005
8.20221e-005
8.20085e-005
8.19982e-005
8.19904e-005
8.1985e-005
8.19817e-005
8.19803e-005
8.19803e-005
8.19806e-005
8.19795e-005
8.19737e-005
8.19653e-005
8.31409e-005
8.31287e-005
8.31106e-005
8.30964e-005
8.30856e-005
8.30772e-005
8.30713e-005
8.30676e-005
8.30658e-005
8.30654e-005
8.30655e-005
8.30641e-005
8.30579e-005
8.30491e-005
8.41886e-005
8.41757e-005
8.41569e-005
8.4142e-005
8.41304e-005
8.41214e-005
8.41147e-005
8.41104e-005
8.4108e-005
8.4107e-005
8.41066e-005
8.41048e-005
8.40981e-005
8.40889e-005
8.52014e-005
8.51878e-005
8.51682e-005
8.51526e-005
8.51402e-005
8.51304e-005
8.51228e-005
8.51176e-005
8.51143e-005
8.51126e-005
8.51115e-005
8.51091e-005
8.51017e-005
8.50921e-005
8.6187e-005
8.61727e-005
8.61525e-005
8.6136e-005
8.61229e-005
8.61121e-005
8.61035e-005
8.60972e-005
8.6093e-005
8.60903e-005
8.60883e-005
8.6085e-005
8.6077e-005
8.60671e-005
8.71527e-005
8.71379e-005
8.7117e-005
8.70998e-005
8.70858e-005
8.70741e-005
8.70645e-005
8.70571e-005
8.70518e-005
8.7048e-005
8.7045e-005
8.7041e-005
8.70324e-005
8.70224e-005
8.81043e-005
8.80891e-005
8.80677e-005
8.80499e-005
8.80352e-005
8.80227e-005
8.80122e-005
8.80038e-005
8.79975e-005
8.79927e-005
8.79889e-005
8.79842e-005
8.79755e-005
8.79656e-005
8.90454e-005
8.903e-005
8.90084e-005
8.89902e-005
8.8975e-005
8.89619e-005
8.89508e-005
8.89417e-005
8.89346e-005
8.89291e-005
8.89247e-005
8.89197e-005
8.89112e-005
8.8902e-005
8.99765e-005
8.99611e-005
8.99395e-005
8.99213e-005
8.99059e-005
8.98926e-005
8.98812e-005
8.98718e-005
8.98643e-005
8.98585e-005
8.98538e-005
8.98489e-005
8.98411e-005
8.98329e-005
9.08947e-005
9.08796e-005
9.08583e-005
9.08402e-005
9.08251e-005
9.08118e-005
9.08005e-005
9.07912e-005
9.07837e-005
9.0778e-005
9.07735e-005
9.0769e-005
9.07624e-005
9.07556e-005
9.17937e-005
9.17791e-005
9.17583e-005
9.17408e-005
9.1726e-005
9.17132e-005
9.17022e-005
9.16932e-005
9.16861e-005
9.16807e-005
9.16766e-005
9.16729e-005
9.16678e-005
9.16624e-005
9.26644e-005
9.26505e-005
9.26305e-005
9.26136e-005
9.25994e-005
9.25871e-005
9.25767e-005
9.25681e-005
9.25614e-005
9.25564e-005
9.25528e-005
9.25498e-005
9.25461e-005
9.25421e-005
9.3496e-005
9.3483e-005
9.34639e-005
9.34477e-005
9.34342e-005
9.34225e-005
9.34125e-005
9.34043e-005
9.33979e-005
9.33932e-005
9.33899e-005
9.33873e-005
9.33846e-005
9.33816e-005
9.42772e-005
9.42653e-005
9.42472e-005
9.42319e-005
9.42189e-005
9.42077e-005
9.41981e-005
9.41902e-005
9.41838e-005
9.4179e-005
9.41756e-005
9.41729e-005
9.41707e-005
9.41678e-005
9.49974e-005
9.49866e-005
9.49698e-005
9.49553e-005
9.49429e-005
9.49321e-005
9.49227e-005
9.49148e-005
9.49083e-005
9.49031e-005
9.48992e-005
9.4896e-005
9.48934e-005
9.48897e-005
9.56475e-005
9.5638e-005
9.56224e-005
9.56088e-005
9.5597e-005
9.55865e-005
9.55772e-005
9.55692e-005
9.55623e-005
9.55565e-005
9.55518e-005
9.55475e-005
9.55438e-005
9.55384e-005
9.62206e-005
9.62124e-005
9.61982e-005
9.61855e-005
9.61743e-005
9.6164e-005
9.61546e-005
9.61461e-005
9.61386e-005
9.6132e-005
9.61259e-005
9.61201e-005
9.61145e-005
9.61062e-005