/*--------------------------------*- C++ -*----------------------------------*\
| =========                 |                                                 |
| \\      /  F ield         | OpenFOAM: The Open Source CFD Toolbox           |
|  \\    /   O peration     | Version:  5.x                                   |
|   \\  /    A nd           | Web:      www.OpenFOAM.org                      |
|    \\/     M anipulation  |                                                 |
\*---------------------------------------------------------------------------*/
/*   Windows 32 and 64 bit porting by blueCAPE: http://www.bluecape.com.pt   *\
|  Based on Windows porting (2.0.x v4) by Symscape: http://www.symscape.com   |
\*---------------------------------------------------------------------------*/
FoamFile
{
    version     2.0;
    format      ascii;
    class       volScalarField;
    location    "0.4";
    object      p;
}
// * * * * * * * * * * * * * * * * * * * * * * * * * * * * * * * * * * * * * //

dimensions      [0 2 -2 0 0 0 0];

internalField   nonuniform List<scalar> 
141075
(
4.21156e-007
4.20656e-007
4.20698e-007
4.20528e-007
4.20486e-007
4.20516e-007
4.20535e-007
4.20503e-007
4.20367e-007
4.20088e-007
4.19648e-007
4.1902e-007
4.18086e-007
4.17152e-007
1.29496e-006
1.2949e-006
1.29552e-006
1.29595e-006
1.29621e-006
1.29637e-006
1.29637e-006
1.29616e-006
1.29568e-006
1.29486e-006
1.29358e-006
1.2917e-006
1.28888e-006
1.28608e-006
2.19623e-006
2.19683e-006
2.19755e-006
2.19843e-006
2.19935e-006
2.20009e-006
2.20053e-006
2.20055e-006
2.20005e-006
2.19888e-006
2.1969e-006
2.19393e-006
2.18931e-006
2.18438e-006
3.08858e-006
3.08974e-006
3.09171e-006
3.0932e-006
3.09429e-006
3.09513e-006
3.09561e-006
3.09556e-006
3.09479e-006
3.09308e-006
3.09021e-006
3.08597e-006
3.0794e-006
3.07232e-006
3.96453e-006
3.96565e-006
3.96794e-006
3.96983e-006
3.97134e-006
3.97243e-006
3.97296e-006
3.97273e-006
3.97153e-006
3.96916e-006
3.96538e-006
3.95995e-006
3.9516e-006
3.94263e-006
4.82883e-006
4.83017e-006
4.83293e-006
4.83517e-006
4.83697e-006
4.83831e-006
4.83898e-006
4.83876e-006
4.8374e-006
4.83462e-006
4.83015e-006
4.82368e-006
4.8137e-006
4.80296e-006
5.68045e-006
5.68208e-006
5.68547e-006
5.68815e-006
5.69026e-006
5.69179e-006
5.69251e-006
5.69216e-006
5.69046e-006
5.68711e-006
5.6818e-006
5.67423e-006
5.66274e-006
5.6505e-006
6.51686e-006
6.5187e-006
6.52256e-006
6.52558e-006
6.52797e-006
6.52968e-006
6.53047e-006
6.53005e-006
6.52809e-006
6.5243e-006
6.51835e-006
6.51001e-006
6.4975e-006
6.4843e-006
7.33661e-006
7.33859e-006
7.34279e-006
7.346e-006
7.34849e-006
7.35029e-006
7.35114e-006
7.35072e-006
7.34873e-006
7.34488e-006
7.33886e-006
7.33045e-006
7.31778e-006
7.30431e-006
8.13884e-006
8.14088e-006
8.1453e-006
8.14862e-006
8.15117e-006
8.15297e-006
8.15382e-006
8.15342e-006
8.15148e-006
8.14771e-006
8.14181e-006
8.13356e-006
8.12111e-006
8.10786e-006
8.92347e-006
8.92537e-006
8.92964e-006
8.93293e-006
8.93555e-006
8.93747e-006
8.93846e-006
8.93822e-006
8.93647e-006
8.93291e-006
8.92729e-006
8.91946e-006
8.90778e-006
8.8955e-006
9.69129e-006
9.69297e-006
9.69682e-006
9.69975e-006
9.70218e-006
9.70408e-006
9.70521e-006
9.7053e-006
9.70408e-006
9.70133e-006
9.69684e-006
9.69051e-006
9.68094e-006
9.67079e-006
1.0443e-005
1.04444e-005
1.04477e-005
1.04502e-005
1.04522e-005
1.04538e-005
1.0455e-005
1.04554e-005
1.0455e-005
1.04535e-005
1.04509e-005
1.04469e-005
1.04404e-005
1.04332e-005
1.11801e-005
1.11809e-005
1.11831e-005
1.1185e-005
1.11867e-005
1.11882e-005
1.11895e-005
1.11904e-005
1.11907e-005
1.11905e-005
1.11895e-005
1.11878e-005
1.11845e-005
1.11807e-005
1.19064e-005
1.19067e-005
1.19077e-005
1.19086e-005
1.19097e-005
1.19108e-005
1.1912e-005
1.19131e-005
1.19141e-005
1.19148e-005
1.19154e-005
1.19158e-005
1.19158e-005
1.19156e-005
1.26246e-005
1.26243e-005
1.26243e-005
1.26243e-005
1.26246e-005
1.26252e-005
1.26261e-005
1.26273e-005
1.26287e-005
1.26304e-005
1.26326e-005
1.26353e-005
1.26387e-005
1.26422e-005
1.33364e-005
1.33355e-005
1.33343e-005
1.33335e-005
1.33332e-005
1.33334e-005
1.33341e-005
1.33354e-005
1.33374e-005
1.33402e-005
1.3344e-005
1.3349e-005
1.33558e-005
1.33627e-005
1.40447e-005
1.40433e-005
1.40409e-005
1.40392e-005
1.40382e-005
1.40379e-005
1.40384e-005
1.40398e-005
1.40422e-005
1.40458e-005
1.4051e-005
1.40578e-005
1.40674e-005
1.40774e-005
1.47519e-005
1.47501e-005
1.47469e-005
1.47444e-005
1.47426e-005
1.47417e-005
1.47417e-005
1.47428e-005
1.47452e-005
1.47492e-005
1.47551e-005
1.47631e-005
1.47748e-005
1.47871e-005
1.54602e-005
1.54579e-005
1.54539e-005
1.54507e-005
1.54483e-005
1.54468e-005
1.54462e-005
1.54468e-005
1.54489e-005
1.54528e-005
1.54588e-005
1.54674e-005
1.54803e-005
1.54941e-005
1.61722e-005
1.61696e-005
1.61649e-005
1.61611e-005
1.61581e-005
1.61559e-005
1.61546e-005
1.61546e-005
1.61561e-005
1.61595e-005
1.61653e-005
1.61738e-005
1.6187e-005
1.62016e-005
1.68905e-005
1.68876e-005
1.68826e-005
1.68782e-005
1.68746e-005
1.68718e-005
1.68698e-005
1.6869e-005
1.68697e-005
1.68723e-005
1.68773e-005
1.68851e-005
1.6898e-005
1.69123e-005
1.76172e-005
1.76141e-005
1.76088e-005
1.76041e-005
1.76001e-005
1.75967e-005
1.7594e-005
1.75924e-005
1.75922e-005
1.75938e-005
1.75976e-005
1.76043e-005
1.76159e-005
1.7629e-005
1.83547e-005
1.83515e-005
1.83461e-005
1.83411e-005
1.83367e-005
1.83327e-005
1.83294e-005
1.8327e-005
1.83258e-005
1.83262e-005
1.83287e-005
1.83338e-005
1.83434e-005
1.83545e-005
1.9105e-005
1.91017e-005
1.90964e-005
1.90912e-005
1.90864e-005
1.90819e-005
1.90779e-005
1.90746e-005
1.90724e-005
1.90715e-005
1.90724e-005
1.90757e-005
1.90829e-005
1.90911e-005
1.98695e-005
1.9866e-005
1.98608e-005
1.98555e-005
1.98502e-005
1.98451e-005
1.98403e-005
1.98361e-005
1.98328e-005
1.98305e-005
1.98298e-005
1.9831e-005
1.98354e-005
1.98404e-005
2.0649e-005
2.06453e-005
2.06401e-005
2.06344e-005
2.06287e-005
2.06228e-005
2.06171e-005
2.06119e-005
2.06072e-005
2.06034e-005
2.06009e-005
2.06e-005
2.06016e-005
2.06036e-005
2.14436e-005
2.14397e-005
2.14341e-005
2.14279e-005
2.14214e-005
2.14147e-005
2.1408e-005
2.14015e-005
2.13954e-005
2.139e-005
2.13855e-005
2.13825e-005
2.13817e-005
2.13818e-005
2.22536e-005
2.22492e-005
2.22428e-005
2.22358e-005
2.22285e-005
2.22209e-005
2.2213e-005
2.22052e-005
2.21977e-005
2.21906e-005
2.21844e-005
2.21794e-005
2.21771e-005
2.21768e-005
2.30805e-005
2.30754e-005
2.30678e-005
2.30598e-005
2.30516e-005
2.3043e-005
2.3034e-005
2.30251e-005
2.30162e-005
2.30077e-005
2.3e-005
2.29936e-005
2.29906e-005
2.29913e-005
2.39273e-005
2.39215e-005
2.39122e-005
2.39032e-005
2.3894e-005
2.38844e-005
2.38746e-005
2.38646e-005
2.38547e-005
2.38452e-005
2.38365e-005
2.38293e-005
2.38263e-005
2.38283e-005
2.47977e-005
2.4791e-005
2.47803e-005
2.47701e-005
2.476e-005
2.47496e-005
2.4739e-005
2.47283e-005
2.47177e-005
2.47075e-005
2.46983e-005
2.46907e-005
2.46876e-005
2.46905e-005
2.56945e-005
2.5687e-005
2.56751e-005
2.56639e-005
2.56529e-005
2.56417e-005
2.56304e-005
2.56191e-005
2.56081e-005
2.55976e-005
2.5588e-005
2.55802e-005
2.55767e-005
2.55791e-005
2.66188e-005
2.66108e-005
2.65979e-005
2.65857e-005
2.65739e-005
2.65618e-005
2.65497e-005
2.65378e-005
2.65263e-005
2.65156e-005
2.65059e-005
2.64977e-005
2.64933e-005
2.6494e-005
2.75701e-005
2.75615e-005
2.75477e-005
2.75346e-005
2.75218e-005
2.75088e-005
2.74958e-005
2.74832e-005
2.74711e-005
2.746e-005
2.745e-005
2.74413e-005
2.74358e-005
2.74341e-005
2.85476e-005
2.85382e-005
2.85235e-005
2.85093e-005
2.84954e-005
2.84814e-005
2.84674e-005
2.84539e-005
2.84411e-005
2.84294e-005
2.84189e-005
2.84095e-005
2.84027e-005
2.83988e-005
2.95512e-005
2.95411e-005
2.95252e-005
2.951e-005
2.9495e-005
2.94799e-005
2.94649e-005
2.94503e-005
2.94367e-005
2.94241e-005
2.94127e-005
2.94024e-005
2.93942e-005
2.93883e-005
3.05818e-005
3.05709e-005
3.0554e-005
3.05377e-005
3.05217e-005
3.05056e-005
3.04896e-005
3.0474e-005
3.04592e-005
3.04454e-005
3.04328e-005
3.04213e-005
3.04115e-005
3.04036e-005
3.16397e-005
3.16281e-005
3.16103e-005
3.1593e-005
3.15761e-005
3.1559e-005
3.1542e-005
3.15252e-005
3.15091e-005
3.14939e-005
3.14798e-005
3.14667e-005
3.14551e-005
3.14454e-005
3.27241e-005
3.27117e-005
3.2693e-005
3.26748e-005
3.26569e-005
3.26388e-005
3.26206e-005
3.26026e-005
3.25851e-005
3.25683e-005
3.25525e-005
3.25377e-005
3.25245e-005
3.25132e-005
3.38334e-005
3.38203e-005
3.38005e-005
3.37812e-005
3.37623e-005
3.37431e-005
3.37235e-005
3.37041e-005
3.36849e-005
3.36664e-005
3.36487e-005
3.36321e-005
3.36174e-005
3.36052e-005
3.49661e-005
3.49521e-005
3.49313e-005
3.49109e-005
3.48907e-005
3.48702e-005
3.48492e-005
3.48281e-005
3.4807e-005
3.47864e-005
3.47665e-005
3.47478e-005
3.47312e-005
3.47181e-005
3.61205e-005
3.61056e-005
3.60836e-005
3.6062e-005
3.60406e-005
3.60187e-005
3.59961e-005
3.59731e-005
3.59498e-005
3.59266e-005
3.5904e-005
3.58825e-005
3.58633e-005
3.58487e-005
3.72939e-005
3.7278e-005
3.72548e-005
3.72319e-005
3.72092e-005
3.71857e-005
3.71613e-005
3.71361e-005
3.71103e-005
3.70841e-005
3.70582e-005
3.70333e-005
3.70107e-005
3.69939e-005
3.84836e-005
3.84665e-005
3.84419e-005
3.84174e-005
3.83931e-005
3.83677e-005
3.83412e-005
3.83136e-005
3.82849e-005
3.82554e-005
3.82258e-005
3.81971e-005
3.81708e-005
3.81513e-005
3.96871e-005
3.96688e-005
3.96424e-005
3.96162e-005
3.95899e-005
3.95625e-005
3.95337e-005
3.95034e-005
3.94717e-005
3.94388e-005
3.94055e-005
3.93729e-005
3.93425e-005
3.93199e-005
4.09024e-005
4.08828e-005
4.08545e-005
4.08262e-005
4.0798e-005
4.07685e-005
4.07373e-005
4.07045e-005
4.06699e-005
4.0634e-005
4.05973e-005
4.0561e-005
4.05264e-005
4.04997e-005
4.21263e-005
4.21052e-005
4.20748e-005
4.20445e-005
4.20142e-005
4.19824e-005
4.1949e-005
4.19139e-005
4.18769e-005
4.18384e-005
4.17991e-005
4.17597e-005
4.17211e-005
4.16899e-005
4.33548e-005
4.33321e-005
4.32992e-005
4.32664e-005
4.32338e-005
4.31997e-005
4.3164e-005
4.31267e-005
4.30878e-005
4.30475e-005
4.30063e-005
4.29649e-005
4.29231e-005
4.28876e-005
4.45842e-005
4.45597e-005
4.45239e-005
4.44884e-005
4.44531e-005
4.44166e-005
4.43786e-005
4.43393e-005
4.42987e-005
4.42571e-005
4.42148e-005
4.4172e-005
4.41279e-005
4.40887e-005
4.58115e-005
4.57851e-005
4.57462e-005
4.57078e-005
4.56699e-005
4.56309e-005
4.55907e-005
4.55495e-005
4.55075e-005
4.54647e-005
4.54215e-005
4.53775e-005
4.53311e-005
4.5288e-005
4.7033e-005
4.70047e-005
4.69626e-005
4.69213e-005
4.68808e-005
4.68393e-005
4.67969e-005
4.67538e-005
4.67102e-005
4.66662e-005
4.66217e-005
4.65761e-005
4.65271e-005
4.64797e-005
4.82438e-005
4.82134e-005
4.81682e-005
4.81238e-005
4.80804e-005
4.80361e-005
4.79912e-005
4.79459e-005
4.79003e-005
4.78546e-005
4.78085e-005
4.77609e-005
4.7709e-005
4.76574e-005
4.9438e-005
4.94056e-005
4.9357e-005
4.93093e-005
4.92628e-005
4.92156e-005
4.91678e-005
4.91199e-005
4.9072e-005
4.90241e-005
4.8976e-005
4.89261e-005
4.88711e-005
4.88154e-005
5.06099e-005
5.05754e-005
5.05234e-005
5.04725e-005
5.0423e-005
5.03729e-005
5.03223e-005
5.02717e-005
5.02213e-005
5.0171e-005
5.01204e-005
5.00678e-005
5.00093e-005
4.99495e-005
5.17533e-005
5.17167e-005
5.16614e-005
5.16076e-005
5.15554e-005
5.15027e-005
5.14496e-005
5.13966e-005
5.13437e-005
5.12908e-005
5.12374e-005
5.11817e-005
5.11194e-005
5.10553e-005
5.2861e-005
5.28225e-005
5.27639e-005
5.27074e-005
5.26528e-005
5.2598e-005
5.25428e-005
5.24876e-005
5.24325e-005
5.23773e-005
5.23212e-005
5.22624e-005
5.21965e-005
5.21289e-005
5.3926e-005
5.38855e-005
5.38237e-005
5.37648e-005
5.37082e-005
5.36516e-005
5.35948e-005
5.35381e-005
5.34814e-005
5.34243e-005
5.33661e-005
5.33049e-005
5.32364e-005
5.31666e-005
5.49408e-005
5.48986e-005
5.48338e-005
5.47728e-005
5.47146e-005
5.46569e-005
5.45991e-005
5.45415e-005
5.44838e-005
5.44257e-005
5.43664e-005
5.43038e-005
5.4234e-005
5.41634e-005
5.5896e-005
5.58524e-005
5.57854e-005
5.57227e-005
5.56636e-005
5.56052e-005
5.55471e-005
5.54893e-005
5.54316e-005
5.53734e-005
5.5314e-005
5.52512e-005
5.51816e-005
5.5112e-005
5.67787e-005
5.67344e-005
5.66658e-005
5.66025e-005
5.65432e-005
5.64852e-005
5.64278e-005
5.6371e-005
5.63145e-005
5.62576e-005
5.61994e-005
5.61379e-005
5.60699e-005
5.60027e-005
5.75736e-005
5.75294e-005
5.74603e-005
5.73974e-005
5.73393e-005
5.72832e-005
5.72283e-005
5.71743e-005
5.71207e-005
5.7067e-005
5.7012e-005
5.69536e-005
5.68884e-005
5.68242e-005
5.82642e-005
5.82209e-005
5.81527e-005
5.80917e-005
5.80365e-005
5.7984e-005
5.79333e-005
5.78841e-005
5.78358e-005
5.77875e-005
5.7738e-005
5.76846e-005
5.76235e-005
5.75628e-005
5.88319e-005
5.8791e-005
5.87252e-005
5.86679e-005
5.86172e-005
5.85703e-005
5.8526e-005
5.84838e-005
5.84431e-005
5.84027e-005
5.83612e-005
5.83152e-005
5.82598e-005
5.8203e-005
5.92564e-005
5.92197e-005
5.91585e-005
5.91069e-005
5.9063e-005
5.90241e-005
5.89888e-005
5.89564e-005
5.89263e-005
5.88971e-005
5.88668e-005
5.88311e-005
5.87828e-005
5.87299e-005
5.95154e-005
5.94854e-005
5.94317e-005
5.93887e-005
5.93545e-005
5.93268e-005
5.9304e-005
5.92852e-005
5.92695e-005
5.92556e-005
5.92406e-005
5.92187e-005
5.91794e-005
5.91298e-005
5.95859e-005
5.95657e-005
5.95236e-005
5.9493e-005
5.94723e-005
5.94601e-005
5.9454e-005
5.94532e-005
5.94568e-005
5.94629e-005
5.9468e-005
5.94644e-005
5.94364e-005
5.93895e-005
5.94448e-005
5.94387e-005
5.94134e-005
5.94002e-005
5.93979e-005
5.94062e-005
5.94223e-005
5.9445e-005
5.94734e-005
5.95053e-005
5.95361e-005
5.95555e-005
5.95413e-005
5.9496e-005
5.90695e-005
5.90833e-005
5.90817e-005
5.9092e-005
5.9114e-005
5.9149e-005
5.91935e-005
5.92462e-005
5.93058e-005
5.93699e-005
5.94327e-005
5.94804e-005
5.94822e-005
5.94368e-005
5.84363e-005
5.84772e-005
5.85081e-005
5.85495e-005
5.86028e-005
5.86719e-005
5.87519e-005
5.88417e-005
5.89399e-005
5.90438e-005
5.91459e-005
5.92287e-005
5.92496e-005
5.92016e-005
5.75221e-005
5.75988e-005
5.76722e-005
5.77534e-005
5.78464e-005
5.7958e-005
5.80821e-005
5.82176e-005
5.83632e-005
5.85159e-005
5.86667e-005
5.87926e-005
5.88362e-005
5.87823e-005
5.63062e-005
5.643e-005
5.65584e-005
5.66897e-005
5.68315e-005
5.6995e-005
5.71729e-005
5.73637e-005
5.75668e-005
5.7779e-005
5.7989e-005
5.81672e-005
5.82371e-005
5.81722e-005
5.47698e-005
5.49541e-005
5.51529e-005
5.5347e-005
5.55488e-005
5.57755e-005
5.6018e-005
5.62753e-005
5.65471e-005
5.68303e-005
5.7111e-005
5.73514e-005
5.74511e-005
5.73686e-005
5.28994e-005
5.316e-005
5.34464e-005
5.3718e-005
5.39933e-005
5.42968e-005
5.46171e-005
5.49534e-005
5.53066e-005
5.56735e-005
5.60374e-005
5.63506e-005
5.64835e-005
5.63751e-005
5.06904e-005
5.10467e-005
5.14421e-005
5.18078e-005
5.21711e-005
5.25662e-005
5.29784e-005
5.34075e-005
5.38555e-005
5.43198e-005
5.47801e-005
5.51772e-005
5.53464e-005
5.52016e-005
4.81421e-005
4.86166e-005
4.91461e-005
4.96263e-005
5.00947e-005
5.05978e-005
5.11175e-005
5.1654e-005
5.2211e-005
5.27868e-005
5.33576e-005
5.38504e-005
5.40579e-005
5.38632e-005
4.52586e-005
4.58749e-005
4.65646e-005
4.71809e-005
4.77739e-005
4.84045e-005
4.90495e-005
4.97101e-005
5.03924e-005
5.10958e-005
5.17926e-005
5.23937e-005
5.26414e-005
5.23805e-005
4.20556e-005
4.28406e-005
4.37191e-005
4.44931e-005
4.52291e-005
4.60056e-005
4.67939e-005
4.75961e-005
4.84207e-005
4.92689e-005
5.01085e-005
5.08316e-005
5.11212e-005
5.07761e-005
3.85529e-005
3.95354e-005
4.06344e-005
4.15906e-005
4.24891e-005
4.343e-005
4.43786e-005
4.53381e-005
4.63207e-005
4.73299e-005
4.83284e-005
4.91867e-005
4.9519e-005
4.90702e-005
3.4777e-005
3.59829e-005
3.73294e-005
3.84907e-005
3.95729e-005
4.0699e-005
4.18262e-005
4.29595e-005
4.41155e-005
4.53006e-005
4.64726e-005
4.74779e-005
4.78525e-005
4.72792e-005
3.07831e-005
3.22388e-005
3.38601e-005
3.52445e-005
3.65243e-005
3.78495e-005
3.91687e-005
4.04883e-005
4.18294e-005
4.32022e-005
4.45592e-005
4.57201e-005
4.61345e-005
4.54153e-005
2.66379e-005
2.83676e-005
3.02893e-005
3.19146e-005
3.34033e-005
3.49371e-005
3.64553e-005
3.79666e-005
3.94982e-005
4.10639e-005
4.26108e-005
4.39301e-005
4.43776e-005
4.34908e-005
2.24226e-005
2.44412e-005
2.66781e-005
2.85561e-005
3.02645e-005
3.20156e-005
3.3739e-005
3.54454e-005
3.71681e-005
3.89262e-005
4.06619e-005
4.21365e-005
4.26066e-005
4.15317e-005
1.82542e-005
2.05724e-005
2.31343e-005
2.52694e-005
2.71979e-005
2.91664e-005
3.1093e-005
3.29908e-005
3.48996e-005
3.68442e-005
3.87621e-005
4.03844e-005
4.08662e-005
3.95887e-005
1.42616e-005
1.68788e-005
1.97641e-005
2.21527e-005
2.4297e-005
2.64771e-005
2.85997e-005
3.06805e-005
3.2766e-005
3.4887e-005
3.69772e-005
3.87382e-005
3.92231e-005
3.77374e-005
1.05966e-005
1.35003e-005
1.66944e-005
1.93227e-005
2.1669e-005
2.40466e-005
2.63513e-005
2.86009e-005
3.08487e-005
3.3132e-005
3.53815e-005
3.72698e-005
3.77512e-005
3.60611e-005
7.42265e-006
1.05881e-005
1.40644e-005
1.691e-005
1.94368e-005
2.19896e-005
2.4454e-005
2.68501e-005
2.92378e-005
3.16608e-005
3.40474e-005
3.60437e-005
3.65123e-005
3.463e-005
4.89883e-006
8.28428e-006
1.19975e-005
1.50252e-005
1.7704e-005
2.04043e-005
2.30016e-005
2.55176e-005
2.80174e-005
3.05501e-005
3.30418e-005
3.51168e-005
3.55591e-005
3.35046e-005
3.18025e-006
6.73212e-006
1.06263e-005
1.37909e-005
1.6581e-005
1.93886e-005
2.20813e-005
2.46809e-005
2.72561e-005
2.98596e-005
3.24166e-005
3.45342e-005
3.49366e-005
3.27401e-005
2.38483e-006
6.02942e-006
1.00255e-005
1.32688e-005
1.6124e-005
1.8994e-005
2.17397e-005
2.43817e-005
2.69902e-005
2.96202e-005
3.21975e-005
3.43185e-005
3.46705e-005
3.23758e-005
2.61324e-006
6.26665e-006
1.02736e-005
1.35222e-005
1.63799e-005
1.92529e-005
2.19977e-005
2.46332e-005
2.72283e-005
2.9838e-005
3.23887e-005
3.44742e-005
3.47724e-005
3.24385e-005
3.90505e-006
7.47543e-006
1.13964e-005
1.4574e-005
1.7367e-005
2.01758e-005
2.28579e-005
2.54304e-005
2.796e-005
3.05001e-005
3.29793e-005
3.49966e-005
3.52493e-005
3.29508e-005
6.22344e-006
9.60766e-006
1.3331e-005
1.63563e-005
1.90216e-005
2.17053e-005
2.42693e-005
2.67281e-005
2.91446e-005
3.15698e-005
3.39358e-005
3.58561e-005
3.60788e-005
3.38981e-005
9.46586e-006
1.25652e-005
1.59862e-005
1.87801e-005
2.12528e-005
2.3751e-005
2.61453e-005
2.84461e-005
3.07089e-005
3.29791e-005
3.51917e-005
3.69827e-005
3.71852e-005
3.52004e-005
1.34299e-005
1.61503e-005
1.91694e-005
2.16623e-005
2.38913e-005
2.61577e-005
2.83443e-005
3.04568e-005
3.25397e-005
3.46278e-005
3.66562e-005
3.82903e-005
3.84831e-005
3.67683e-005
1.78057e-005
2.00746e-005
2.26215e-005
2.47689e-005
2.67227e-005
2.87298e-005
3.0689e-005
3.26005e-005
3.44942e-005
3.63898e-005
3.82215e-005
3.96904e-005
3.98995e-005
3.85276e-005
2.21467e-005
2.392e-005
2.59564e-005
2.77483e-005
2.94378e-005
3.12021e-005
3.29587e-005
3.4698e-005
3.64301e-005
3.81537e-005
3.97981e-005
4.11043e-005
4.13439e-005
4.03486e-005
2.58436e-005
2.71349e-005
2.87141e-005
3.0211e-005
3.16921e-005
3.32695e-005
3.48839e-005
3.65161e-005
3.81532e-005
3.97685e-005
4.12803e-005
4.24611e-005
4.27419e-005
4.20989e-005
2.82474e-005
2.91449e-005
3.04195e-005
3.18168e-005
3.33163e-005
3.49291e-005
3.6602e-005
3.82924e-005
3.99573e-005
4.15394e-005
4.29391e-005
4.39441e-005
4.41027e-005
4.35705e-005
4.21632e-007
4.21064e-007
4.21194e-007
4.2115e-007
4.21156e-007
4.2116e-007
4.21078e-007
4.2088e-007
4.20516e-007
4.19935e-007
4.1912e-007
4.18065e-007
4.16696e-007
4.15459e-007
1.29589e-006
1.29581e-006
1.29619e-006
1.29644e-006
1.29668e-006
1.2968e-006
1.29667e-006
1.29617e-006
1.2952e-006
1.29364e-006
1.29138e-006
1.28829e-006
1.28409e-006
1.28035e-006
2.19785e-006
2.19862e-006
2.19933e-006
2.19999e-006
2.20048e-006
2.20077e-006
2.2007e-006
2.20007e-006
2.1987e-006
2.19633e-006
2.19272e-006
2.18762e-006
2.18051e-006
2.17404e-006
3.09021e-006
3.09137e-006
3.09298e-006
3.09431e-006
3.09536e-006
3.09601e-006
3.09607e-006
3.0953e-006
3.09343e-006
3.09011e-006
3.08494e-006
3.07764e-006
3.06747e-006
3.05819e-006
3.96728e-006
3.9685e-006
3.97038e-006
3.97195e-006
3.97321e-006
3.974e-006
3.97404e-006
3.97302e-006
3.97057e-006
3.96624e-006
3.95957e-006
3.95021e-006
3.93721e-006
3.92538e-006
4.83263e-006
4.83411e-006
4.83646e-006
4.83838e-006
4.83989e-006
4.84085e-006
4.84095e-006
4.8398e-006
4.83696e-006
4.83188e-006
4.82399e-006
4.81282e-006
4.79723e-006
4.78302e-006
5.6849e-006
5.68666e-006
5.68953e-006
5.69188e-006
5.69377e-006
5.69502e-006
5.69524e-006
5.69401e-006
5.6908e-006
5.685e-006
5.67593e-006
5.66305e-006
5.64512e-006
5.62881e-006
6.52201e-006
6.52403e-006
6.52738e-006
6.53007e-006
6.53223e-006
6.53369e-006
6.53403e-006
6.53278e-006
6.52937e-006
6.52309e-006
6.51319e-006
6.49911e-006
6.47952e-006
6.46176e-006
7.34216e-006
7.34432e-006
7.34803e-006
7.35098e-006
7.35335e-006
7.355e-006
7.3555e-006
7.35436e-006
7.35099e-006
7.34466e-006
7.33459e-006
7.32019e-006
7.30004e-006
7.28168e-006
8.14451e-006
8.14669e-006
8.15055e-006
8.15363e-006
8.15616e-006
8.15797e-006
8.15865e-006
8.15773e-006
8.15461e-006
8.14857e-006
8.13879e-006
8.12466e-006
8.10478e-006
8.0866e-006
8.92916e-006
8.93125e-006
8.93505e-006
8.9381e-006
8.94067e-006
8.94261e-006
8.94353e-006
8.94296e-006
8.94032e-006
8.93489e-006
8.92588e-006
8.91271e-006
8.89413e-006
8.87717e-006
9.69646e-006
9.69834e-006
9.70187e-006
9.70472e-006
9.7072e-006
9.70918e-006
9.71034e-006
9.71025e-006
9.70841e-006
9.70417e-006
9.69686e-006
9.68597e-006
9.67042e-006
9.65618e-006
1.04472e-005
1.04487e-005
1.04517e-005
1.04541e-005
1.04564e-005
1.04583e-005
1.04597e-005
1.04602e-005
1.04594e-005
1.04569e-005
1.04521e-005
1.04446e-005
1.04335e-005
1.04232e-005
1.11835e-005
1.11844e-005
1.11865e-005
1.11883e-005
1.11901e-005
1.11919e-005
1.11935e-005
1.11946e-005
1.11949e-005
1.11943e-005
1.11922e-005
1.11884e-005
1.11822e-005
1.11764e-005
1.19083e-005
1.19087e-005
1.19099e-005
1.19109e-005
1.19122e-005
1.19136e-005
1.19152e-005
1.19167e-005
1.1918e-005
1.19191e-005
1.19196e-005
1.19195e-005
1.19186e-005
1.19176e-005
1.26245e-005
1.26243e-005
1.26244e-005
1.26248e-005
1.26254e-005
1.26265e-005
1.26279e-005
1.26298e-005
1.2632e-005
1.26348e-005
1.26381e-005
1.26419e-005
1.26463e-005
1.26503e-005
1.33344e-005
1.33335e-005
1.33326e-005
1.33321e-005
1.33322e-005
1.33328e-005
1.33342e-005
1.33364e-005
1.33397e-005
1.33442e-005
1.33501e-005
1.33577e-005
1.33675e-005
1.33763e-005
1.40404e-005
1.4039e-005
1.40371e-005
1.40358e-005
1.40352e-005
1.40354e-005
1.40367e-005
1.40391e-005
1.40432e-005
1.40491e-005
1.40574e-005
1.40682e-005
1.40825e-005
1.40954e-005
1.47449e-005
1.4743e-005
1.47404e-005
1.47384e-005
1.47372e-005
1.47369e-005
1.47378e-005
1.47403e-005
1.47447e-005
1.47516e-005
1.47614e-005
1.47746e-005
1.47923e-005
1.48083e-005
1.54507e-005
1.54483e-005
1.54449e-005
1.54423e-005
1.54405e-005
1.54397e-005
1.54401e-005
1.54423e-005
1.54467e-005
1.5454e-005
1.54646e-005
1.54793e-005
1.54992e-005
1.55174e-005
1.61603e-005
1.61576e-005
1.61536e-005
1.61504e-005
1.6148e-005
1.61465e-005
1.61464e-005
1.61482e-005
1.61522e-005
1.61593e-005
1.61701e-005
1.61853e-005
1.62063e-005
1.62255e-005
1.68761e-005
1.68731e-005
1.68688e-005
1.68652e-005
1.68622e-005
1.68602e-005
1.68595e-005
1.68606e-005
1.68641e-005
1.68706e-005
1.68809e-005
1.68958e-005
1.69166e-005
1.69358e-005
1.76006e-005
1.75974e-005
1.75929e-005
1.75889e-005
1.75856e-005
1.75831e-005
1.75818e-005
1.75822e-005
1.75849e-005
1.75905e-005
1.75998e-005
1.76136e-005
1.76332e-005
1.7651e-005
1.8336e-005
1.83327e-005
1.83282e-005
1.8324e-005
1.83203e-005
1.83173e-005
1.83154e-005
1.8315e-005
1.83168e-005
1.83212e-005
1.83291e-005
1.8341e-005
1.83584e-005
1.8374e-005
1.90844e-005
1.9081e-005
1.90765e-005
1.90721e-005
1.9068e-005
1.90645e-005
1.90619e-005
1.90606e-005
1.90612e-005
1.90642e-005
1.90703e-005
1.908e-005
1.90944e-005
1.91069e-005
1.9847e-005
1.98435e-005
1.98391e-005
1.98344e-005
1.98299e-005
1.98258e-005
1.98223e-005
1.982e-005
1.98192e-005
1.98205e-005
1.98244e-005
1.98314e-005
1.98424e-005
1.98515e-005
2.06247e-005
2.06211e-005
2.06165e-005
2.06115e-005
2.06064e-005
2.06015e-005
2.0597e-005
2.05934e-005
2.05911e-005
2.05904e-005
2.05919e-005
2.0596e-005
2.06035e-005
2.06094e-005
2.14178e-005
2.14139e-005
2.14089e-005
2.14033e-005
2.13975e-005
2.13916e-005
2.1386e-005
2.1381e-005
2.1377e-005
2.13743e-005
2.13733e-005
2.13747e-005
2.1379e-005
2.13826e-005
2.22268e-005
2.22224e-005
2.22165e-005
2.221e-005
2.22034e-005
2.21965e-005
2.21898e-005
2.21835e-005
2.21779e-005
2.21734e-005
2.21704e-005
2.21694e-005
2.21714e-005
2.21737e-005
2.30532e-005
2.30482e-005
2.30409e-005
2.30334e-005
2.30258e-005
2.3018e-005
2.30103e-005
2.30029e-005
2.29961e-005
2.29902e-005
2.29857e-005
2.29831e-005
2.29836e-005
2.29858e-005
2.38996e-005
2.38938e-005
2.3885e-005
2.38764e-005
2.38678e-005
2.38591e-005
2.38506e-005
2.38423e-005
2.38347e-005
2.38279e-005
2.38225e-005
2.38189e-005
2.38187e-005
2.38213e-005
2.47692e-005
2.47626e-005
2.47524e-005
2.47427e-005
2.47331e-005
2.47236e-005
2.47142e-005
2.47052e-005
2.46968e-005
2.46894e-005
2.46834e-005
2.46793e-005
2.46789e-005
2.46818e-005
2.56646e-005
2.56572e-005
2.56458e-005
2.56351e-005
2.56246e-005
2.56141e-005
2.56038e-005
2.55939e-005
2.55848e-005
2.55767e-005
2.55702e-005
2.55658e-005
2.55652e-005
2.55679e-005
2.65867e-005
2.65787e-005
2.65664e-005
2.65547e-005
2.65432e-005
2.65317e-005
2.65203e-005
2.65093e-005
2.64992e-005
2.64903e-005
2.64832e-005
2.64784e-005
2.64775e-005
2.64795e-005
2.75352e-005
2.75267e-005
2.75135e-005
2.75008e-005
2.74882e-005
2.74756e-005
2.7463e-005
2.74508e-005
2.74395e-005
2.74297e-005
2.7422e-005
2.74168e-005
2.74155e-005
2.74165e-005
2.85097e-005
2.85005e-005
2.84863e-005
2.84726e-005
2.8459e-005
2.84451e-005
2.84314e-005
2.84181e-005
2.84058e-005
2.83951e-005
2.83867e-005
2.8381e-005
2.83792e-005
2.8379e-005
2.95103e-005
2.95004e-005
2.94852e-005
2.94705e-005
2.94558e-005
2.9441e-005
2.94262e-005
2.94119e-005
2.93988e-005
2.93873e-005
2.93782e-005
2.93718e-005
2.93689e-005
2.93673e-005
3.05376e-005
3.0527e-005
3.0511e-005
3.04954e-005
3.04799e-005
3.04643e-005
3.04487e-005
3.04336e-005
3.04197e-005
3.04074e-005
3.03973e-005
3.03898e-005
3.03855e-005
3.0382e-005
3.15919e-005
3.15808e-005
3.15641e-005
3.15478e-005
3.15316e-005
3.15153e-005
3.1499e-005
3.14832e-005
3.14684e-005
3.14551e-005
3.14439e-005
3.1435e-005
3.14289e-005
3.14233e-005
3.26723e-005
3.26605e-005
3.26433e-005
3.26263e-005
3.26094e-005
3.25924e-005
3.25753e-005
3.25587e-005
3.2543e-005
3.25286e-005
3.25161e-005
3.25058e-005
3.24979e-005
3.24905e-005
3.37771e-005
3.37646e-005
3.37467e-005
3.37289e-005
3.37113e-005
3.36933e-005
3.36754e-005
3.36578e-005
3.36409e-005
3.36252e-005
3.36113e-005
3.35993e-005
3.35898e-005
3.35808e-005
3.49043e-005
3.48911e-005
3.48724e-005
3.48537e-005
3.48351e-005
3.48162e-005
3.47972e-005
3.47784e-005
3.47601e-005
3.47428e-005
3.4727e-005
3.4713e-005
3.47013e-005
3.46908e-005
3.60521e-005
3.60381e-005
3.60184e-005
3.59987e-005
3.59792e-005
3.59594e-005
3.59392e-005
3.5919e-005
3.58991e-005
3.58798e-005
3.58615e-005
3.58447e-005
3.58298e-005
3.58169e-005
3.72179e-005
3.7203e-005
3.71822e-005
3.71615e-005
3.7141e-005
3.71201e-005
3.70987e-005
3.7077e-005
3.70553e-005
3.70336e-005
3.70124e-005
3.69921e-005
3.6973e-005
3.69568e-005
3.8399e-005
3.83831e-005
3.8361e-005
3.8339e-005
3.83173e-005
3.82951e-005
3.82723e-005
3.8249e-005
3.82251e-005
3.82009e-005
3.81765e-005
3.81522e-005
3.81283e-005
3.81084e-005
3.95931e-005
3.9576e-005
3.95523e-005
3.95288e-005
3.95056e-005
3.94818e-005
3.94573e-005
3.9432e-005
3.94059e-005
3.93789e-005
3.93512e-005
3.93228e-005
3.9294e-005
3.92701e-005
4.07976e-005
4.07794e-005
4.07538e-005
4.07286e-005
4.07037e-005
4.06781e-005
4.06516e-005
4.06242e-005
4.05957e-005
4.05659e-005
4.05348e-005
4.05025e-005
4.0469e-005
4.04409e-005
4.20097e-005
4.199e-005
4.19625e-005
4.19353e-005
4.19084e-005
4.18806e-005
4.18519e-005
4.18222e-005
4.17912e-005
4.17587e-005
4.17248e-005
4.16893e-005
4.1652e-005
4.16202e-005
4.32254e-005
4.32043e-005
4.31744e-005
4.31448e-005
4.31155e-005
4.30853e-005
4.3054e-005
4.30217e-005
4.29882e-005
4.29535e-005
4.29174e-005
4.28799e-005
4.28406e-005
4.28062e-005
4.44416e-005
4.44188e-005
4.43861e-005
4.43538e-005
4.43218e-005
4.42888e-005
4.42547e-005
4.42197e-005
4.41837e-005
4.41469e-005
4.41094e-005
4.4071e-005
4.40309e-005
4.39951e-005
4.56553e-005
4.56307e-005
4.55952e-005
4.556e-005
4.55251e-005
4.54892e-005
4.54522e-005
4.54143e-005
4.53759e-005
4.53371e-005
4.52982e-005
4.52591e-005
4.52187e-005
4.51818e-005
4.68629e-005
4.68365e-005
4.6798e-005
4.676e-005
4.67222e-005
4.66833e-005
4.66433e-005
4.66026e-005
4.65616e-005
4.65206e-005
4.64801e-005
4.644e-005
4.63989e-005
4.63604e-005
4.80596e-005
4.80313e-005
4.79898e-005
4.79488e-005
4.7908e-005
4.78661e-005
4.7823e-005
4.77794e-005
4.77356e-005
4.76922e-005
4.76499e-005
4.76084e-005
4.75662e-005
4.75258e-005
4.924e-005
4.92098e-005
4.91652e-005
4.91211e-005
4.90773e-005
4.90323e-005
4.89862e-005
4.89396e-005
4.8893e-005
4.88472e-005
4.88028e-005
4.87596e-005
4.87157e-005
4.8673e-005
5.03989e-005
5.03667e-005
5.03191e-005
5.02721e-005
5.02255e-005
5.01777e-005
5.01288e-005
5.00795e-005
5.00303e-005
4.9982e-005
4.99351e-005
4.98895e-005
4.98429e-005
4.97972e-005
5.15306e-005
5.14967e-005
5.14461e-005
5.13965e-005
5.13475e-005
5.12973e-005
5.12462e-005
5.11946e-005
5.11431e-005
5.10923e-005
5.10427e-005
5.09939e-005
5.09437e-005
5.08943e-005
5.2629e-005
5.25932e-005
5.25399e-005
5.2488e-005
5.2437e-005
5.23851e-005
5.23323e-005
5.2279e-005
5.22256e-005
5.21725e-005
5.21202e-005
5.20682e-005
5.20142e-005
5.1961e-005
5.36873e-005
5.36499e-005
5.3594e-005
5.354e-005
5.34875e-005
5.34343e-005
5.33804e-005
5.3326e-005
5.32714e-005
5.32168e-005
5.31624e-005
5.31076e-005
5.30501e-005
5.2994e-005
5.46985e-005
5.46597e-005
5.46014e-005
5.45458e-005
5.44922e-005
5.44382e-005
5.43837e-005
5.43289e-005
5.42737e-005
5.42183e-005
5.41625e-005
5.41058e-005
5.4046e-005
5.39878e-005
5.5654e-005
5.56142e-005
5.5554e-005
5.54972e-005
5.54428e-005
5.53886e-005
5.5334e-005
5.52792e-005
5.52241e-005
5.51684e-005
5.51122e-005
5.50545e-005
5.49934e-005
5.49348e-005
5.65424e-005
5.65022e-005
5.64408e-005
5.63835e-005
5.63292e-005
5.62754e-005
5.62215e-005
5.61674e-005
5.6113e-005
5.6058e-005
5.6002e-005
5.59443e-005
5.5883e-005
5.58251e-005
5.73507e-005
5.73108e-005
5.72492e-005
5.71924e-005