/*--------------------------------*- C++ -*----------------------------------*\
| =========                 |                                                 |
| \\      /  F ield         | OpenFOAM: The Open Source CFD Toolbox           |
|  \\    /   O peration     | Version:  5.x                                   |
|   \\  /    A nd           | Web:      www.OpenFOAM.org                      |
|    \\/     M anipulation  |                                                 |
\*---------------------------------------------------------------------------*/
/*   Windows 32 and 64 bit porting by blueCAPE: http://www.bluecape.com.pt   *\
|  Based on Windows porting (2.0.x v4) by Symscape: http://www.symscape.com   |
\*---------------------------------------------------------------------------*/
FoamFile
{
    version     2.0;
    format      ascii;
    class       volScalarField;
    location    "0.5";
    object      p;
}
// * * * * * * * * * * * * * * * * * * * * * * * * * * * * * * * * * * * * * //

dimensions      [0 2 -2 0 0 0 0];

internalField   nonuniform List<scalar> 
141075
(
-6.07938e-008
-5.71911e-008
-5.56821e-008
-5.41613e-008
-5.30687e-008
-5.21648e-008
-5.13796e-008
-5.06629e-008
-4.9977e-008
-4.92855e-008
-4.85623e-008
-4.78026e-008
-4.68955e-008
-4.59974e-008
-2.03719e-007
-1.99466e-007
-1.96894e-007
-1.94622e-007
-1.92525e-007
-1.9052e-007
-1.88554e-007
-1.86618e-007
-1.84715e-007
-1.82873e-007
-1.81164e-007
-1.79664e-007
-1.78434e-007
-1.77707e-007
-3.74711e-007
-3.74536e-007
-3.73379e-007
-3.71995e-007
-3.70334e-007
-3.68455e-007
-3.66419e-007
-3.64268e-007
-3.6207e-007
-3.59907e-007
-3.57847e-007
-3.55996e-007
-3.5453e-007
-3.53587e-007
-5.45992e-007
-5.45592e-007
-5.44782e-007
-5.43581e-007
-5.41933e-007
-5.39865e-007
-5.37465e-007
-5.34825e-007
-5.3204e-007
-5.29204e-007
-5.26429e-007
-5.23897e-007
-5.21909e-007
-5.20617e-007
-7.26941e-007
-7.26314e-007
-7.25248e-007
-7.23678e-007
-7.21576e-007
-7.18936e-007
-7.15835e-007
-7.12367e-007
-7.08633e-007
-7.04777e-007
-7.00984e-007
-6.97523e-007
-6.9485e-007
-6.93175e-007
-9.2533e-007
-9.24505e-007
-9.23128e-007
-9.21062e-007
-9.18276e-007
-9.14801e-007
-9.10696e-007
-9.06065e-007
-9.01058e-007
-8.95853e-007
-8.90672e-007
-8.85885e-007
-8.82182e-007
-8.79903e-007
-1.14613e-006
-1.14515e-006
-1.14346e-006
-1.14088e-006
-1.13734e-006
-1.13285e-006
-1.12752e-006
-1.12146e-006
-1.11482e-006
-1.10783e-006
-1.10079e-006
-1.09426e-006
-1.08923e-006
-1.08618e-006
-1.39305e-006
-1.39197e-006
-1.38996e-006
-1.38678e-006
-1.38236e-006
-1.37676e-006
-1.37006e-006
-1.36239e-006
-1.35394e-006
-1.34498e-006
-1.33592e-006
-1.32747e-006
-1.32097e-006
-1.31705e-006
-1.6686e-006
-1.66748e-006
-1.66523e-006
-1.66152e-006
-1.65628e-006
-1.64957e-006
-1.64148e-006
-1.63217e-006
-1.62186e-006
-1.61088e-006
-1.59973e-006
-1.58927e-006
-1.58124e-006
-1.57632e-006
-1.97429e-006
-1.97323e-006
-1.97082e-006
-1.96665e-006
-1.96066e-006
-1.95294e-006
-1.94358e-006
-1.9327e-006
-1.92054e-006
-1.90745e-006
-1.89403e-006
-1.88131e-006
-1.87147e-006
-1.86527e-006
-2.3098e-006
-2.30897e-006
-2.30655e-006
-2.30204e-006
-2.2954e-006
-2.28675e-006
-2.27616e-006
-2.26372e-006
-2.24966e-006
-2.23436e-006
-2.21849e-006
-2.20328e-006
-2.19145e-006
-2.18382e-006
-2.67215e-006
-2.67169e-006
-2.66943e-006
-2.66472e-006
-2.65752e-006
-2.64801e-006
-2.63622e-006
-2.62226e-006
-2.60635e-006
-2.5889e-006
-2.57065e-006
-2.55302e-006
-2.53924e-006
-2.53013e-006
-3.05588e-006
-3.05587e-006
-3.05382e-006
-3.04902e-006
-3.04145e-006
-3.0313e-006
-3.01855e-006
-3.00326e-006
-2.98565e-006
-2.96613e-006
-2.94553e-006
-2.92545e-006
-2.90964e-006
-2.89893e-006
-3.45366e-006
-3.45426e-006
-3.45261e-006
-3.44785e-006
-3.44003e-006
-3.42939e-006
-3.41588e-006
-3.3995e-006
-3.38041e-006
-3.35902e-006
-3.33618e-006
-3.31368e-006
-3.29585e-006
-3.28351e-006
-3.85549e-006
-3.85683e-006
-3.85579e-006
-3.85133e-006
-3.84353e-006
-3.8327e-006
-3.81877e-006
-3.80167e-006
-3.78152e-006
-3.7587e-006
-3.73408e-006
-3.70959e-006
-3.69006e-006
-3.6762e-006
-4.24957e-006
-4.25165e-006
-4.25126e-006
-4.24731e-006
-4.23988e-006
-4.22928e-006
-4.21538e-006
-4.19809e-006
-4.17745e-006
-4.15383e-006
-4.1281e-006
-4.10229e-006
-4.08157e-006
-4.06652e-006
-4.6241e-006
-4.62683e-006
-4.62707e-006
-4.62364e-006
-4.61667e-006
-4.60651e-006
-4.59298e-006
-4.57591e-006
-4.55531e-006
-4.53147e-006
-4.50526e-006
-4.47873e-006
-4.45732e-006
-4.4414e-006
-4.96849e-006
-4.97174e-006
-4.97252e-006
-4.96957e-006
-4.96303e-006
-4.95331e-006
-4.94017e-006
-4.92341e-006
-4.903e-006
-4.8792e-006
-4.85284e-006
-4.826e-006
-4.80426e-006
-4.78791e-006
-5.27527e-006
-5.27881e-006
-5.27995e-006
-5.27732e-006
-5.2711e-006
-5.26169e-006
-5.24886e-006
-5.23238e-006
-5.21222e-006
-5.18859e-006
-5.16234e-006
-5.13552e-006
-5.11381e-006
-5.09739e-006
-5.54142e-006
-5.545e-006
-5.54626e-006
-5.54377e-006
-5.53769e-006
-5.52843e-006
-5.51577e-006
-5.49949e-006
-5.47954e-006
-5.45617e-006
-5.43019e-006
-5.40368e-006
-5.38223e-006
-5.36602e-006
-5.76901e-006
-5.77232e-006
-5.77345e-006
-5.77086e-006
-5.76472e-006
-5.75541e-006
-5.74272e-006
-5.72647e-006
-5.70666e-006
-5.68355e-006
-5.65799e-006
-5.63203e-006
-5.61108e-006
-5.59543e-006
-5.96555e-006
-5.96834e-006
-5.9691e-006
-5.96621e-006
-5.95984e-006
-5.9503e-006
-5.93745e-006
-5.92117e-006
-5.9015e-006
-5.87878e-006
-5.85388e-006
-5.82881e-006
-5.80872e-006
-5.79403e-006
-6.14351e-006
-6.14564e-006
-6.14594e-006
-6.14268e-006
-6.13602e-006
-6.12625e-006
-6.11329e-006
-6.09708e-006
-6.07776e-006
-6.05571e-006
-6.03183e-006
-6.00809e-006
-5.98923e-006
-5.97586e-006
-6.31865e-006
-6.32007e-006
-6.31993e-006
-6.3164e-006
-6.3096e-006
-6.29979e-006
-6.28697e-006
-6.27116e-006
-6.25257e-006
-6.23163e-006
-6.20929e-006
-6.18738e-006
-6.17015e-006
-6.15835e-006
-6.50807e-006
-6.50882e-006
-6.50833e-006
-6.50469e-006
-6.49799e-006
-6.48844e-006
-6.4761e-006
-6.46109e-006
-6.44368e-006
-6.42438e-006
-6.40408e-006
-6.38451e-006
-6.36931e-006
-6.3593e-006
-6.72825e-006
-6.72843e-006
-6.72772e-006
-6.72414e-006
-6.71776e-006
-6.70873e-006
-6.6972e-006
-6.68335e-006
-6.66751e-006
-6.65021e-006
-6.63232e-006
-6.6154e-006
-6.60248e-006
-6.5944e-006
-6.99347e-006
-6.99323e-006
-6.99247e-006
-6.98909e-006
-6.98317e-006
-6.97484e-006
-6.96428e-006
-6.95173e-006
-6.93757e-006
-6.92233e-006
-6.90687e-006
-6.89254e-006
-6.88183e-006
-6.8756e-006
-7.31501e-006
-7.31448e-006
-7.31374e-006
-7.31064e-006
-7.3052e-006
-7.29753e-006
-7.28786e-006
-7.27646e-006
-7.26373e-006
-7.25024e-006
-7.23679e-006
-7.22461e-006
-7.21575e-006
-7.21116e-006
-7.70089e-006
-7.70017e-006
-7.69952e-006
-7.69669e-006
-7.6917e-006
-7.68463e-006
-7.67573e-006
-7.66528e-006
-7.65371e-006
-7.64158e-006
-7.6297e-006
-7.61924e-006
-7.61197e-006
-7.60904e-006
-8.15687e-006
-8.15602e-006
-8.15553e-006
-8.15307e-006
-8.14866e-006
-8.14235e-006
-8.13441e-006
-8.12512e-006
-8.11493e-006
-8.1044e-006
-8.09435e-006
-8.0859e-006
-8.08055e-006
-8.07955e-006
-8.68771e-006
-8.68682e-006
-8.68662e-006
-8.68473e-006
-8.68118e-006
-8.67603e-006
-8.66956e-006
-8.66209e-006
-8.65407e-006
-8.64607e-006
-8.63882e-006
-8.63329e-006
-8.6306e-006
-8.63176e-006
-9.29769e-006
-9.29693e-006
-9.29718e-006
-9.29603e-006
-9.29356e-006
-9.28985e-006
-9.28523e-006
-9.28005e-006
-9.27474e-006
-9.26982e-006
-9.26587e-006
-9.26362e-006
-9.26365e-006
-9.26648e-006
-9.98898e-006
-9.98868e-006
-9.98957e-006
-9.98922e-006
-9.98774e-006
-9.98527e-006
-9.98215e-006
-9.97872e-006
-9.97538e-006
-9.97256e-006
-9.9707e-006
-9.97025e-006
-9.97142e-006
-9.97417e-006
-1.07573e-005
-1.0758e-005
-1.07597e-005
-1.07601e-005
-1.07591e-005
-1.0757e-005
-1.07542e-005
-1.07508e-005
-1.07473e-005
-1.07439e-005
-1.07411e-005
-1.07391e-005
-1.07381e-005
-1.07379e-005
-1.15871e-005
-1.15891e-005
-1.15918e-005
-1.15925e-005
-1.15914e-005
-1.15887e-005
-1.15845e-005
-1.15792e-005
-1.15729e-005
-1.15658e-005
-1.15583e-005
-1.15508e-005
-1.15441e-005
-1.1538e-005
-1.24503e-005
-1.24538e-005
-1.24574e-005
-1.24583e-005
-1.24565e-005
-1.24525e-005
-1.24463e-005
-1.24379e-005
-1.24273e-005
-1.24149e-005
-1.24009e-005
-1.2386e-005
-1.2372e-005
-1.23593e-005
-1.33134e-005
-1.33182e-005
-1.33223e-005
-1.33233e-005
-1.33211e-005
-1.33163e-005
-1.33087e-005
-1.32982e-005
-1.32849e-005
-1.32688e-005
-1.32504e-005
-1.32307e-005
-1.32119e-005
-1.31952e-005
-1.41492e-005
-1.41542e-005
-1.41587e-005
-1.41599e-005
-1.41583e-005
-1.41542e-005
-1.41475e-005
-1.41382e-005
-1.41261e-005
-1.41113e-005
-1.40943e-005
-1.4076e-005
-1.40586e-005
-1.40429e-005
-1.49463e-005
-1.49509e-005
-1.49554e-005
-1.49576e-005
-1.49577e-005
-1.49564e-005
-1.49534e-005
-1.49488e-005
-1.49424e-005
-1.49343e-005
-1.49248e-005
-1.49143e-005
-1.49041e-005
-1.48942e-005
-1.57115e-005
-1.57153e-005
-1.57198e-005
-1.57234e-005
-1.57264e-005
-1.57291e-005
-1.57315e-005
-1.57335e-005
-1.57352e-005
-1.57363e-005
-1.57368e-005
-1.57365e-005
-1.57359e-005
-1.57334e-005
-1.646e-005
-1.64629e-005
-1.64676e-005
-1.64727e-005
-1.64783e-005
-1.64848e-005
-1.64921e-005
-1.65e-005
-1.65084e-005
-1.6517e-005
-1.65254e-005
-1.65331e-005
-1.65394e-005
-1.65428e-005
-1.72048e-005
-1.72068e-005
-1.72113e-005
-1.72169e-005
-1.72238e-005
-1.72319e-005
-1.72413e-005
-1.72516e-005
-1.72627e-005
-1.7274e-005
-1.72852e-005
-1.72957e-005
-1.73045e-005
-1.73105e-005
-1.79525e-005
-1.79535e-005
-1.79569e-005
-1.79614e-005
-1.79671e-005
-1.79738e-005
-1.79814e-005
-1.79898e-005
-1.79986e-005
-1.80076e-005
-1.80165e-005
-1.8025e-005
-1.80327e-005
-1.80393e-005
-1.87073e-005
-1.8707e-005
-1.87084e-005
-1.87103e-005
-1.87127e-005
-1.87155e-005
-1.87185e-005
-1.87215e-005
-1.87247e-005
-1.8728e-005
-1.87316e-005
-1.87358e-005
-1.87405e-005
-1.87468e-005
-1.94741e-005
-1.94725e-005
-1.94716e-005
-1.94704e-005
-1.94689e-005
-1.94669e-005
-1.94642e-005
-1.94611e-005
-1.94577e-005
-1.94543e-005
-1.94516e-005
-1.94504e-005
-1.94512e-005
-1.94562e-005
-2.02563e-005
-2.02537e-005
-2.02508e-005
-2.0247e-005
-2.02422e-005
-2.02362e-005
-2.0229e-005
-2.02206e-005
-2.02115e-005
-2.02019e-005
-2.01929e-005
-2.01855e-005
-2.0181e-005
-2.01825e-005
-2.10526e-005
-2.10491e-005
-2.10447e-005
-2.10389e-005
-2.10318e-005
-2.10231e-005
-2.10127e-005
-2.10006e-005
-2.0987e-005
-2.09724e-005
-2.09576e-005
-2.09439e-005
-2.0933e-005
-2.09289e-005
-2.18579e-005
-2.18537e-005
-2.18478e-005
-2.18402e-005
-2.18312e-005
-2.18202e-005
-2.18072e-005
-2.17922e-005
-2.17751e-005
-2.17562e-005
-2.17364e-005
-2.1717e-005
-2.17001e-005
-2.16902e-005
-2.2668e-005
-2.26629e-005
-2.26554e-005
-2.2646e-005
-2.26348e-005
-2.26214e-005
-2.26056e-005
-2.25874e-005
-2.25665e-005
-2.25435e-005
-2.2519e-005
-2.24943e-005
-2.24718e-005
-2.24563e-005
-2.34784e-005
-2.34725e-005
-2.34633e-005
-2.34521e-005
-2.34387e-005
-2.34227e-005
-2.34038e-005
-2.33819e-005
-2.33568e-005
-2.33289e-005
-2.32988e-005
-2.32681e-005
-2.32393e-005
-2.3218e-005
-2.42799e-005
-2.42732e-005
-2.42624e-005
-2.42492e-005
-2.42337e-005
-2.42153e-005
-2.41936e-005
-2.41683e-005
-2.41392e-005
-2.41063e-005
-2.40707e-005
-2.40337e-005
-2.39986e-005
-2.39718e-005
-2.50596e-005
-2.50516e-005
-2.50387e-005
-2.50235e-005
-2.5006e-005
-2.49856e-005
-2.49617e-005
-2.49341e-005
-2.49025e-005
-2.4867e-005
-2.48284e-005
-2.47884e-005
-2.47501e-005
-2.47209e-005
-2.58098e-005
-2.57999e-005
-2.57843e-005
-2.5767e-005
-2.57477e-005
-2.57259e-005
-2.5701e-005
-2.56729e-005
-2.56413e-005
-2.56065e-005
-2.55693e-005
-2.55313e-005
-2.54951e-005
-2.54681e-005
-2.65333e-005
-2.65211e-005
-2.6503e-005
-2.6484e-005
-2.64641e-005
-2.64421e-005
-2.64179e-005
-2.63913e-005
-2.6362e-005
-2.63304e-005
-2.62973e-005
-2.62641e-005
-2.62327e-005
-2.62103e-005
-2.72353e-005
-2.72211e-005
-2.7201e-005
-2.71814e-005
-2.71622e-005
-2.71421e-005
-2.71207e-005
-2.70976e-005
-2.70726e-005
-2.70456e-005
-2.70174e-005
-2.69891e-005
-2.69624e-005
-2.69446e-005
-2.7915e-005
-2.78984e-005
-2.78765e-005
-2.78571e-005
-2.78399e-005
-2.78232e-005
-2.78065e-005
-2.77892e-005
-2.77708e-005
-2.77508e-005
-2.77297e-005
-2.77081e-005
-2.76874e-005
-2.76748e-005
-2.85702e-005
-2.85505e-005
-2.8526e-005
-2.85066e-005
-2.84918e-005
-2.84795e-005
-2.84691e-005
-2.84599e-005
-2.84512e-005
-2.8442e-005
-2.84321e-005
-2.84216e-005
-2.84106e-005
-2.84054e-005
-2.92098e-005
-2.91861e-005
-2.91582e-005
-2.91381e-005
-2.91254e-005
-2.91175e-005
-2.91139e-005
-2.91137e-005
-2.91159e-005
-2.91192e-005
-2.91226e-005
-2.91249e-005
-2.91251e-005
-2.91277e-005
-2.98549e-005
-2.98264e-005
-2.97941e-005
-2.97721e-005
-2.97599e-005
-2.97545e-005
-2.97552e-005
-2.97611e-005
-2.97709e-005
-2.97826e-005
-2.97947e-005
-2.98052e-005
-2.98122e-005
-2.98198e-005
-3.05264e-005
-3.04924e-005
-3.04539e-005
-3.04276e-005
-3.04124e-005
-3.04049e-005
-3.04043e-005
-3.04094e-005
-3.04186e-005
-3.04297e-005
-3.0441e-005
-3.04505e-005
-3.04572e-005
-3.04654e-005
-3.12379e-005
-3.11971e-005
-3.11498e-005
-3.11153e-005
-3.10924e-005
-3.10767e-005
-3.10674e-005
-3.10631e-005
-3.10621e-005
-3.10624e-005
-3.10625e-005
-3.10615e-005
-3.10603e-005
-3.1065e-005
-3.19986e-005
-3.19491e-005
-3.18897e-005
-3.18428e-005
-3.18067e-005
-3.17763e-005
-3.17507e-005
-3.17287e-005
-3.17085e-005
-3.16885e-005
-3.16681e-005
-3.16479e-005
-3.1632e-005
-3.1629e-005
-3.28172e-005
-3.27565e-005
-3.26814e-005
-3.26172e-005
-3.25619e-005
-3.25096e-005
-3.24598e-005
-3.24114e-005
-3.23634e-005
-3.23147e-005
-3.22661e-005
-3.222e-005
-3.21849e-005
-3.21724e-005
-3.37007e-005
-3.36259e-005
-3.35306e-005
-3.34439e-005
-3.33632e-005
-3.32819e-005
-3.32002e-005
-3.31178e-005
-3.30344e-005
-3.29504e-005
-3.28683e-005
-3.27927e-005
-3.27372e-005
-3.27165e-005
-3.46555e-005
-3.4563e-005
-3.44429e-005
-3.4329e-005
-3.42181e-005
-3.41028e-005
-3.39842e-005
-3.38628e-005
-3.37396e-005
-3.36162e-005
-3.34969e-005
-3.33893e-005
-3.33125e-005
-3.32853e-005
-3.5693e-005
-3.55784e-005
-3.54289e-005
-3.52843e-005
-3.51405e-005
-3.49886e-005
-3.48306e-005
-3.4668e-005
-3.45022e-005
-3.43363e-005
-3.41763e-005
-3.40329e-005
-3.3933e-005
-3.39007e-005
-3.68358e-005
-3.66942e-005
-3.65106e-005
-3.63324e-005
-3.61537e-005
-3.59633e-005
-3.5764e-005
-3.55576e-005
-3.53461e-005
-3.51336e-005
-3.49285e-005
-3.47457e-005
-3.46216e-005
-3.45871e-005
-3.81151e-005
-3.79412e-005
-3.77186e-005
-3.75036e-005
-3.72881e-005
-3.70574e-005
-3.68148e-005
-3.65619e-005
-3.63012e-005
-3.60376e-005
-3.57824e-005
-3.55554e-005
-3.54054e-005
-3.53712e-005
-3.95574e-005
-3.93447e-005
-3.90771e-005
-3.88218e-005
-3.85672e-005
-3.82944e-005
-3.8007e-005
-3.77064e-005
-3.73943e-005
-3.70764e-005
-3.67664e-005
-3.64899e-005
-3.63106e-005
-3.62782e-005
-4.11839e-005
-4.09245e-005
-4.06032e-005
-4.03012e-005
-4.00029e-005
-3.96839e-005
-3.93487e-005
-3.89982e-005
-3.86336e-005
-3.82604e-005
-3.78944e-005
-3.75671e-005
-3.73595e-005
-3.73331e-005
-4.30152e-005
-4.26997e-005
-4.23142e-005
-4.19564e-005
-4.16063e-005
-4.12335e-005
-4.08445e-005
-4.04398e-005
-4.00203e-005
-3.95912e-005
-3.91702e-005
-3.87947e-005
-3.8564e-005
-3.85518e-005
-4.50649e-005
-4.46823e-005
-4.42206e-005
-4.37975e-005
-4.33875e-005
-4.29537e-005
-4.25048e-005
-4.20414e-005
-4.15631e-005
-4.10746e-005
-4.05952e-005
-4.01686e-005
-3.99163e-005
-3.99255e-005
-4.73391e-005
-4.68768e-005
-4.63259e-005
-4.5828e-005
-4.53512e-005
-4.485e-005
-4.43358e-005
-4.38082e-005
-4.32653e-005
-4.27102e-005
-4.21639e-005
-4.16777e-005
-4.13997e-005
-4.14353e-005
-4.98427e-005
-4.92867e-005
-4.86324e-005
-4.80494e-005
-4.74972e-005
-4.69202e-005
-4.63326e-005
-4.57333e-005
-4.51179e-005
-4.44877e-005
-4.3865e-005
-4.33103e-005
-4.30032e-005
-4.30721e-005
-5.25785e-005
-5.19134e-005
-5.11395e-005
-5.04592e-005
-4.98215e-005
-4.91587e-005
-4.8488e-005
-4.78072e-005
-4.71091e-005
-4.63928e-005
-4.56831e-005
-4.50516e-005
-4.47155e-005
-4.48297e-005
-5.55456e-005
-5.47556e-005
-5.38458e-005
-5.30554e-005
-5.23216e-005
-5.15617e-005
-5.07967e-005
-5.00224e-005
-4.92285e-005
-4.84129e-005
-4.76039e-005
-4.68875e-005
-4.65234e-005
-4.66965e-005
-5.87371e-005
-5.78058e-005
-5.6743e-005
-5.5829e-005
-5.49863e-005
-5.41161e-005
-5.32438e-005
-5.23638e-005
-5.14633e-005
-5.05378e-005
-4.96194e-005
-4.8809e-005
-4.84138e-005
-4.86543e-005
-6.2135e-005
-6.10458e-005
-5.98107e-005
-5.87557e-005
-5.77885e-005
-5.6793e-005
-5.5801e-005
-5.48064e-005
-5.37921e-005
-5.27497e-005
-5.1713e-005
-5.07977e-005
-5.03656e-005
-5.06792e-005
-6.57032e-005
-6.4441e-005
-6.30163e-005
-6.1805e-005
-6.06989e-005
-5.95645e-005
-5.84413e-005
-5.73221e-005
-5.61848e-005
-5.50162e-005
-5.38515e-005
-5.28236e-005
-5.23535e-005
-5.27488e-005
-6.93856e-005
-6.79366e-005
-6.63079e-005
-6.49298e-005
-6.36759e-005
-6.23929e-005
-6.11281e-005
-5.98735e-005
-5.86027e-005
-5.72984e-005
-5.59984e-005
-5.48534e-005
-5.43472e-005
-5.48342e-005
-7.31181e-005
-7.14716e-005
-6.9627e-005
-6.80727e-005
-6.66629e-005
-6.52225e-005
-6.38078e-005
-6.24105e-005
-6.10002e-005
-5.95549e-005
-5.81144e-005
-5.68481e-005
-5.63064e-005
-5.6893e-005
-7.68298e-005
-7.49802e-005
-7.29139e-005
-7.11771e-005
-6.96042e-005
-6.79994e-005
-6.64289e-005
-6.48844e-005
-6.33304e-005
-6.17396e-005
-6.01542e-005
-5.87635e-005
-5.81884e-005
-5.88816e-005
-8.04282e-005
-7.83734e-005
-7.60818e-005
-7.41607e-005
-7.24242e-005
-7.0655e-005
-6.89295e-005
-6.72388e-005
-6.55419e-005
-6.38061e-005
-6.20756e-005
-6.05614e-005
-5.99571e-005
-6.07647e-005
-8.38129e-005
-8.1557e-005
-7.90425e-005
-7.69382e-005
-7.50407e-005
-7.31118e-005
-7.1238e-005
-6.94098e-005
-6.75805e-005
-6.57111e-005
-6.38475e-005
-6.22216e-005
-6.1599e-005
-6.25264e-005
-8.68768e-005
-8.44344e-005
-8.17147e-005
-7.94406e-005
-7.73913e-005
-7.53118e-005
-7.32994e-005
-7.13451e-005
-6.93976e-005
-6.74125e-005
-6.54371e-005
-6.37218e-005
-6.30977e-005
-6.41468e-005
-8.94951e-005
-8.68844e-005
-8.39813e-005
-8.15612e-005
-7.93846e-005
-7.71777e-005
-7.5048e-005
-7.29879e-005
-7.09426e-005
-6.88634e-005
-6.67982e-005
-6.50133e-005
-6.44e-005
-6.55673e-005
-9.1571e-005
-8.88185e-005
-8.57603e-005
-8.32203e-005
-8.09438e-005
-7.86379e-005
-7.64179e-005
-7.42777e-005
-7.21602e-005
-7.00126e-005
-6.78822e-005
-6.60489e-005
-6.54562e-005
-6.67308e-005
-9.30272e-005
-9.01725e-005
-8.70032e-005
-8.43768e-005
-8.20274e-005
-7.96498e-005
-7.73664e-005
-7.51715e-005
-7.30071e-005
-7.08175e-005
-6.86501e-005
-6.67951e-005
-6.62366e-005
-6.76027e-005
-9.37801e-005
-9.08667e-005
-8.76312e-005
-8.49543e-005
-8.25646e-005
-8.01492e-005
-7.78352e-005
-7.56177e-005
-7.34364e-005
-7.12335e-005
-6.90572e-005
-6.72084e-005
-6.66992e-005
-6.81417e-005
-9.37676e-005
-9.08497e-005
-8.76072e-005
-8.49252e-005
-8.25316e-005
-8.0113e-005
-7.7799e-005
-7.55866e-005
-7.34155e-005
-7.12279e-005
-6.9074e-005
-6.72618e-005
-6.68152e-005
-6.8315e-005
-9.29448e-005
-9.00787e-005
-8.68933e-005
-8.4262e-005
-8.1914e-005
-7.9538e-005
-7.72639e-005
-7.50911e-005
-7.29627e-005
-7.08236e-005
-6.87257e-005
-6.69785e-005
-6.65992e-005
-6.81219e-005
-9.13309e-005
-8.85737e-005
-8.5504e-005
-8.29715e-005
-8.07143e-005
-7.84282e-005
-7.6238e-005
-7.41443e-005
-7.20953e-005
-7.00415e-005
-6.8035e-005
-6.63786e-005
-6.60601e-005
-6.75569e-005
-8.90051e-005
-8.64209e-005
-8.35334e-005
-8.11458e-005
-7.90162e-005
-7.68587e-005
-7.47887e-005
-7.28058e-005
-7.0863e-005
-6.89192e-005
-6.70299e-005
-6.5484e-005
-6.52157e-005
-6.66347e-005
-8.60797e-005
-8.37307e-005
-8.10937e-005
-7.88987e-005
-7.69304e-005
-7.49322e-005
-7.30117e-005
-7.11697e-005
-6.93624e-005
-6.75518e-005
-6.57924e-005
-6.43595e-005
-6.41224e-005
-6.5416e-005
-8.27354e-005
-8.06762e-005
-7.83471e-005
-7.63856e-005
-7.46085e-005
-7.27933e-005
-7.10379e-005
-6.93486e-005
-6.76908e-005
-6.60288e-005
-6.44112e-005
-6.30933e-005
-6.28622e-005
-6.39773e-005
-7.92235e-005
-7.74973e-005
-7.55163e-005
-7.38126e-005
-7.22458e-005
-7.06319e-005
-6.90485e-005
-6.75035e-005
-6.59748e-005
-6.44468e-005
-6.29732e-005
-6.1775e-005
-6.15269e-005
-6.24109e-005
-7.58606e-005
-7.44889e-005
-7.28694e-005
-7.14195e-005
-7.00436e-005
-6.86091e-005
-6.7177e-005
-6.57551e-005
-6.43375e-005
-6.29258e-005
-6.1578e-005
-6.04894e-005
-6.0216e-005
-6.08564e-005
-7.30503e-005
-7.20277e-005
-7.0741e-005
-6.95009e-005
-6.82672e-005
-6.69565e-005
-6.56148e-005
-6.42643e-005
-6.29122e-005
-6.15728e-005
-6.0312e-005
-5.93042e-005
-5.89928e-005
-5.93916e-005
-7.12178e-005
-7.04906e-005
-6.94391e-005
-6.82855e-005
-6.70464e-005
-6.57092e-005
-6.43147e-005
-6.29045e-005
-6.15158e-005
-6.01854e-005
-5.89933e-005
-5.81045e-005
-5.78692e-005
-5.82004e-005
-6.14175e-008
-5.73954e-008
-5.58087e-008
-5.4416e-008
-5.33705e-008
-5.25101e-008
-5.17604e-008
-5.10632e-008
-5.03809e-008
-4.96887e-008
-4.89631e-008
-4.82153e-008
-4.74514e-008
-4.68161e-008
-2.04659e-007
-2.00102e-007
-1.97463e-007
-1.95161e-007
-1.93058e-007
-1.91085e-007
-1.89186e-007
-1.87333e-007
-1.85534e-007
-1.83805e-007
-1.82196e-007
-1.80804e-007
-1.79753e-007
-1.79221e-007
-3.73424e-007
-3.73249e-007
-3.72119e-007
-3.70768e-007
-3.69164e-007
-3.67382e-007
-3.65474e-007
-3.63481e-007
-3.61461e-007
-3.59497e-007
-3.5768e-007
-3.56132e-007
-3.55029e-007
-3.54397e-007
-5.42212e-007
-5.41831e-007
-5.41063e-007
-5.39947e-007
-5.38445e-007
-5.36594e-007
-5.34472e-007
-5.32156e-007
-5.29734e-007
-5.27307e-007
-5.24995e-007
-5.22976e-007
-5.21546e-007
-5.20716e-007
-7.1956e-007
-7.18984e-007
-7.18044e-007
-7.16644e-007
-7.14775e-007
-7.12461e-007
-7.09771e-007
-7.06795e-007
-7.03638e-007
-7.00442e-007
-6.97393e-007
-6.94762e-007
-6.92979e-007
-6.92017e-007
-9.12636e-007
-9.11863e-007
-9.10647e-007
-9.08835e-007
-9.06412e-007
-9.0343e-007
-8.99955e-007
-8.96081e-007
-8.91948e-007
-8.87744e-007
-8.83712e-007
-8.80222e-007
-8.77899e-007
-8.76727e-007
-1.12601e-006
-1.12508e-006
-1.12358e-006
-1.12134e-006
-1.11831e-006
-1.11453e-006
-1.11009e-006
-1.10511e-006
-1.09975e-006
-1.09425e-006
-1.08893e-006
-1.08434e-006
-1.0814e-006
-1.08004e-006
-1.36317e-006
-1.36213e-006
-1.36036e-006
-1.35765e-006
-1.35394e-006
-1.34929e-006
-1.34379e-006
-1.3376e-006
-1.3309e-006
-1.324e-006
-1.31735e-006
-1.31165e-006
-1.30814e-006
-1.30668e-006
-1.62645e-006
-1.62534e-006
-1.62335e-006
-1.62021e-006
-1.61586e-006
-1.61037e-006
-1.60385e-006
-1.59647e-006
-1.58846e-006
-1.58021e-006
-1.57229e-006
-1.56559e-006
-1.56169e-006
-1.56027e-006
-1.91736e-006
-1.91629e-006
-1.91418e-006
-1.91069e-006
-1.90577e-006
-1.89954e-006
-1.89212e-006
-1.88366e-006
-1.87444e-006
-1.86489e-006
-1.85569e-006
-1.84795e-006
-1.84363e-006
-1.84222e-006
-2.23561e-006
-2.23471e-006
-2.23263e-006
-2.22895e-006
-2.22362e-006
-2.21679e-006
-2.20855e-006
-2.19909e-006
-2.18867e-006
-2.17779e-006
-2.16727e-006
-2.15844e-006
-2.15377e-006
-2.15246e-006
-2.57867e-006
-2.57805e-006
-2.57608e-006
-2.57231e-006
-2.56667e-006
-2.55932e-006
-2.55037e-006
-2.53999e-006
-2.52849e-006
-2.51643e-006
-2.50474e-006
-2.49502e-006
-2.4902e-006
-2.48912e-006
-2.94186e-006
-2.94163e-006
-2.9399e-006
-2.93614e-006
-2.9303e-006
-2.92257e-006
-2.91305e-006
-2.9019e-006
-2.88945e-006
-2.87633e-006
-2.86358e-006
-2.85305e-006
-2.84819e-006
-2.84742e-006
-3.31845e-006
-3.31874e-006
-3.3174e-006
-3.31382e-006
-3.30796e-006
-3.30004e-006
-3.29016e-006
-3.27846e-006
-3.26529e-006
-3.25128e-006
-3.2376e-006
-3.22635e-006
-3.22152e-006
-3.22113e-006
-3.69967e-006
-3.70055e-006
-3.69972e-006
-3.69651e-006
-3.69088e-006
-3.68308e-006
-3.67318e-006
-3.6613e-006
-3.64776e-006
-3.63325e-006
-3.61903e-006
-3.60743e-006
-3.60292e-006
-3.60304e-006
-4.07535e-006
-4.07685e-006
-4.07659e-006
-4.07387e-006
-4.06866e-006
-4.06124e-006
-4.05163e-006
-4.03995e-006
-4.02651e-006
-4.01201e-006
-3.99777e-006
-3.98628e-006
-3.98245e-006
-3.98328e-006
-4.435e-006
-4.43707e-006
-4.43738e-006
-4.43517e-006
-4.43045e-006
-4.42354e-006
-4.41444e-006
-4.40322e-006
-4.39019e-006
-4.37605e-006
-4.36215e-006
-4.35111e-006
-4.34811e-006
-4.34973e-006
-4.76944e-006
-4.77194e-006
-4.77272e-006
-4.77097e-006
-4.76672e-006
-4.76028e-006
-4.75164e-006
-4.74087e-006
-4.72826e-006
-4.71451e-006
-4.70101e-006
-4.69044e-006
-4.68821e-006
-4.69057e-006
-5.07247e-006
-5.0752e-006
-5.07628e-006
-5.07483e-006
-5.07089e-006
-5.06477e-006
-5.05645e-006
-5.046e-006
-5.03371e-006
-5.02026e-006
-5.00705e-006
-4.99682e-006
-4.99506e-006
-4.99791e-006
-5.34176e-006
-5.34451e-006
-5.34567e-006
-5.34432e-006
-5.34048e-006
-5.33446e-006
-5.32625e-006
-5.31592e-006
-5.30374e-006
-5.2904e-006
-5.2773e-006
-5.26718e-006
-5.26547e-006
-5.26838e-006
-5.57954e-006
-5.58207e-006
-5.5831e-006
-5.58161e-006
-5.57761e-006
-5.57142e-006
-5.56304e-006
-5.55254e-006
-5.54021e-006
-5.52675e-006
-5.51353e-006
-5.50322e-006
-5.50112e-006
-5.5037e-006
-5.79281e-006
-5.79492e-006
-5.79564e-006
-5.79382e-006
-5.78947e-006
-5.7829e-006
-5.77413e-006
-5.76326e-006
-5.75062e-006
-5.73689e-006
-5.72342e-006
-5.71277e-006
-5.70995e-006
-5.71192e-006
-5.99279e-006
-5.99436e-006
-5.99469e-006
-5.99248e-006
-5.98774e-006
-5.98076e-006
-5.97159e-006
-5.96037e-006
-5.94746e-006
-5.93353e-006
-5.91988e-006
-5.9089e-006
-5.90519e-006
-5.90631e-006
-6.19349e-006
-6.19449e-006
-6.19447e-006
-6.19193e-006
-6.18692e-006
-6.17968e-006
-6.17032e-006
-6.159e-006
-6.14609e-006
-6.13226e-006
-6.11871e-006
-6.1076e-006
-6.10303e-006
-6.10318e-006
-6.40983e-006
-6.41032e-006
-6.41003e-006
-6.40732e-006
-6.40223e-006
-6.39498e-006
-6.38572e-006
-6.37463e-006
-6.3621e-006
-6.34877e-006
-6.33573e-006
-6.32487e-006
-6.3197e-006
-6.31897e-006
-6.65596e-006
-6.65603e-006
-6.6556e-006
-6.65288e-006
-6.64791e-006
-6.64091e-006
-6.63204e-006
-6.62153e-006
-6.60975e-006
-6.5973e-006
-6.58515e-006
-6.5749e-006
-6.56945e-006
-6.56811e-006
-6.94432e-006
-6.94407e-006
-6.9436e-006
-6.941e-006
-6.9363e-006
-6.92972e-006
-6.92142e-006
-6.91165e-006
-6.9008e-006
-6.8894e-006
-6.8783e-006
-6.86885e-006
-6.86336e-006
-6.86163e-006
-7.28509e-006
-7.28459e-006
-7.28413e-006
-7.28168e-006
-7.27726e-006
-7.27107e-006
-7.26329e-006
-7.25418e-006
-7.24411e-006
-7.23361e-006
-7.22341e-006
-7.21466e-006
-7.20921e-006
-7.20736e-006
-7.68621e-006
-7.68552e-006
-7.68509e-006
-7.68277e-006
-7.6786e-006
-7.67273e-006
-7.66537e-006
-7.65678e-006
-7.64733e-006
-7.63751e-006
-7.62801e-006
-7.61986e-006
-7.61464e-006
-7.61316e-006
-8.15423e-006
-8.15339e-006
-8.15306e-006
-8.15095e-006
-8.14711e-006
-8.1417e-006
-8.13492e-006
-8.12704e-006
-8.11841e-006
-8.10955e-006
-8.1011e-006
-8.09402e-006
-8.0897e-006
-8.08926e-006
-8.69494e-006
-8.69407e-006
-8.69396e-006
-8.69225e-006
-8.68901e-006
-8.68439e-006
-8.67862e-006
-8.672e-006
-8.66488e-006
-8.65776e-006
-8.65125e-006
-8.64615e-006
-8.64356e-006
-8.64466e-006
-9.31308e-006
-9.31239e-006
-9.3127e-006
-9.31159e-006
-9.30918e-006
-9.30563e-006
-9.30123e-006
-9.29627e-006
-9.29112e-006
-9.2862e-006
-9.28202e-006
-9.27918e-006
-9.27838e-006
-9.28054e-006
-1.00102e-005
-1.001e-005
-1.0011e-005
-1.00107e-005
-1.00091e-005
-1.00065e-005
-1.00032e-005
-9.99949e-006
-9.99569e-006
-9.99214e-006
-9.98921e-006
-9.98726e-006
-9.98666e-006
-9.98789e-006
-1.07804e-005
-1.07814e-005
-1.07833e-005
-1.07836e-005
-1.07825e-005
-1.07802e-005
-1.07771e-005
-1.07733e-005
-1.07691e-005
-1.07647e-005
-1.07604e-005
-1.07563e-005
-1.07528e-005
-1.075e-005
-1.16068e-005
-1.16092e-005
-1.1612e-005
-1.16128e-005
-1.16117e-005
-1.16089e-005
-1.16047e-005
-1.15992e-005
-1.15924e-005
-1.15846e-005
-1.15759e-005
-1.15666e-005
-1.1557e-005
-1.15472e-005
-1.24612e-005
-1.2465e-005
-1.24688e-005
-1.24698e-005
-1.24682e-005
-1.24645e-005
-1.24586e-005
-1.24505e-005
-1.24402e-005
-1.24279e-005
-1.24136e-005
-1.23978e-005
-1.23812e-005
-1.23643e-005
-1.33117e-005
-1.33166e-005
-1.33209e-005
-1.3322e-005
-1.33203e-005
-1.33161e-005
-1.33092e-005
-1.32997e-005
-1.32873e-005
-1.32722e-005
-1.32547e-005
-1.32351e-005
-1.32149e-005
-1.31945e-005
-1.41336e-005
-1.41387e-005
-1.41431e-005
-1.41447e-005
-1.41436e-005
-1.41402e-005
-1.41345e-005
-1.41263e-005
-1.41155e-005
-1.41023e-005
-1.40868e-005
-1.40697e-005
-1.40523e-005
-1.40347e-005
-1.49179e-005
-1.49225e-005
-1.49269e-005
-1.49293e-005
-1.493e-005
-1.49292e-005
-1.4927e-005
-1.49234e-005
-1.49182e-005
-1.49116e-005
-1.49037e-005
-1.4895e-005
-1.48864e-005
-1.48773e-005
-1.56721e-005
-1.56758e-005
-1.56804e-005
-1.56841e-005
-1.56874e-005
-1.56904e-005
-1.56933e-005
-1.56959e-005
-1.56984e-005
-1.57006e-005
-1.57026e-005
-1.57045e-005
-1.57068e-005
-1.57081e-005
-1.64114e-005
-1.64142e-005
-1.6419e-005
-1.64242e-005
-1.643e-005
-1.64367e-005
-1.64442e-005
-1.64524e-005
-1.64614e-005
-1.64709e-005
-1.64808e-005
-1.6491e-005
-1.65016e-005
-1.65111e-005
-1.71475e-005
-1.71496e-005
-1.71544e-005
-1.71602e-005
-1.71674e-005
-1.7176e-005
-1.71857e-005
-1.71967e-005
-1.72086e-005
-1.72213e-005
-1.72345e-005
-1.72482e-005
-1.72623e-005
-1.72759e-005
-1.78858e-005
-1.7887e-005
-1.78909e-005
-1.78961e-005
-1.79026e-005
-1.79103e-005
-1.79192e-005
-1.7929e-005
-1.79397e-005
-1.7951e-005
-1.7963e-005
-1.79757e-005
-1.79895e-005
-1.80045e-005
-1.86285e-005
-1.86285e-005
-1.86308e-005
-1.86339e-005
-1.86379e-005
-1.86426e-005
-1.86479e-005
-1.86538e-005
-1.86602e-005
-1.86673e-005
-1.86752e-005
-1.86847e-005
-1.86965e-005
-1.87121e-005
-1.93795e-005
-1.93783e-005
-1.93785e-005
-1.9379e-005
-1.93798e-005
-1.93806e-005
-1.93815e-005
-1.93825e-005
-1.93838e-005
-1.93856e-005
-1.93887e-005
-1.93941e-005
-1.94031e-005
-1.94184e-005
-2.01432e-005
-2.01408e-005
-2.01392e-005
-2.01375e-005
-2.01356e-005
-2.01333e-005
-2.01306e-005
-2.01275e-005
-2.01243e-005
-2.01215e-005
-2.01198e-005
-2.01206e-005
-2.01256e-005
-2.01383e-005
-2.0921e-005
-2.09177e-005
-2.09146e-005
-2.09113e-005
-2.09077e-005
-2.09035e-005
-2.08985e-005
-2.08928e-005
-2.08865e-005
-2.088e-005
-2.08741e-005
-2.087e-005
-2.08697e-005
-2.08775e-005
-2.1711e-005
-2.17069e-005
-2.17026e-005
-2.1698e-005
-2.16932e-005
-2.16875e-005
-2.16809e-005
-2.16733e-005
-2.16647e-005
-2.16553e-005
-2.16457e-005
-2.16371e-005
-2.16312e-005
-2.16327e-005
-2.25101e-005
-2.25053e-005
-2.24997e-005
-2.24938e-005
-2.24874e-005
-2.24801e-005
-2.24715e-005
-2.24617e-005
-2.24504e-005
-2.24378e-005
-2.24243e-005
-2.24109e-005
-2.23992e-005
-2.23941e-005
-2.33133e-005
-2.3308e-005
-2.33011e-005
-2.32936e-005
-2.32853e-005
-2.32758e-005
-2.32646e-005
-2.32516e-005