/*--------------------------------*- C++ -*----------------------------------*\
| =========                 |                                                 |
| \\      /  F ield         | OpenFOAM: The Open Source CFD Toolbox           |
|  \\    /   O peration     | Version:  5.x                                   |
|   \\  /    A nd           | Web:      www.OpenFOAM.org                      |
|    \\/     M anipulation  |                                                 |
\*---------------------------------------------------------------------------*/
/*   Windows 32 and 64 bit porting by blueCAPE: http://www.bluecape.com.pt   *\
|  Based on Windows porting (2.0.x v4) by Symscape: http://www.symscape.com   |
\*---------------------------------------------------------------------------*/
FoamFile
{
    version     2.0;
    format      ascii;
    class       volScalarField;
    location    "0.9";
    object      p;
}
// * * * * * * * * * * * * * * * * * * * * * * * * * * * * * * * * * * * * * //

dimensions      [0 2 -2 0 0 0 0];

internalField   nonuniform List<scalar> 
141075
(
-5.04318e-007
-5.0468e-007
-5.04628e-007
-5.046e-007
-5.04498e-007
-5.04322e-007
-5.04096e-007
-5.03821e-007
-5.03502e-007
-5.03152e-007
-5.02793e-007
-5.02449e-007
-5.02165e-007
-5.01861e-007
-1.54079e-006
-1.54085e-006
-1.54028e-006
-1.53962e-006
-1.53882e-006
-1.53785e-006
-1.53673e-006
-1.53547e-006
-1.53408e-006
-1.53257e-006
-1.53104e-006
-1.52961e-006
-1.52849e-006
-1.52775e-006
-2.60462e-006
-2.6032e-006
-2.60109e-006
-2.59911e-006
-2.59711e-006
-2.59496e-006
-2.5926e-006
-2.59003e-006
-2.58726e-006
-2.58435e-006
-2.58147e-006
-2.57884e-006
-2.57692e-006
-2.57591e-006
-3.67368e-006
-3.67162e-006
-3.66845e-006
-3.66539e-006
-3.66232e-006
-3.65905e-006
-3.65552e-006
-3.65173e-006
-3.64768e-006
-3.64348e-006
-3.63934e-006
-3.63556e-006
-3.63283e-006
-3.63145e-006
-4.7483e-006
-4.74564e-006
-4.74151e-006
-4.7375e-006
-4.73345e-006
-4.72913e-006
-4.7245e-006
-4.71954e-006
-4.71424e-006
-4.70877e-006
-4.70339e-006
-4.69852e-006
-4.69501e-006
-4.69325e-006
-5.8302e-006
-5.82693e-006
-5.82188e-006
-5.81695e-006
-5.81196e-006
-5.80671e-006
-5.80109e-006
-5.79504e-006
-5.78854e-006
-5.78172e-006
-5.77502e-006
-5.769e-006
-5.76474e-006
-5.76263e-006
-6.92082e-006
-6.91694e-006
-6.91094e-006
-6.9051e-006
-6.89921e-006
-6.89299e-006
-6.88637e-006
-6.87928e-006
-6.87169e-006
-6.86374e-006
-6.85581e-006
-6.84863e-006
-6.8435e-006
-6.841e-006
-8.02185e-006
-8.01737e-006
-8.01041e-006
-8.00368e-006
-7.99689e-006
-7.98972e-006
-7.98207e-006
-7.97392e-006
-7.96526e-006
-7.95624e-006
-7.94727e-006
-7.93904e-006
-7.93305e-006
-7.93009e-006
-9.13478e-006
-9.12971e-006
-9.12183e-006
-9.11419e-006
-9.10651e-006
-9.09842e-006
-9.08982e-006
-9.08066e-006
-9.07097e-006
-9.06089e-006
-9.05087e-006
-9.04154e-006
-9.03468e-006
-9.03121e-006
-1.02608e-005
-1.02552e-005
-1.02464e-005
-1.02379e-005
-1.02294e-005
-1.02204e-005
-1.02108e-005
-1.02007e-005
-1.019e-005
-1.01789e-005
-1.01679e-005
-1.01577e-005
-1.015e-005
-1.01459e-005
-1.14011e-005
-1.13949e-005
-1.13853e-005
-1.1376e-005
-1.13666e-005
-1.13567e-005
-1.13463e-005
-1.13352e-005
-1.13236e-005
-1.13115e-005
-1.12996e-005
-1.12885e-005
-1.128e-005
-1.12752e-005
-1.25568e-005
-1.255e-005
-1.25395e-005
-1.25294e-005
-1.25192e-005
-1.25085e-005
-1.24973e-005
-1.24853e-005
-1.24728e-005
-1.24599e-005
-1.24471e-005
-1.24352e-005
-1.24258e-005
-1.24203e-005
-1.37286e-005
-1.37213e-005
-1.371e-005
-1.3699e-005
-1.3688e-005
-1.36766e-005
-1.36645e-005
-1.36518e-005
-1.36385e-005
-1.36248e-005
-1.36112e-005
-1.35986e-005
-1.35882e-005
-1.35819e-005
-1.49175e-005
-1.49096e-005
-1.48974e-005
-1.48857e-005
-1.4874e-005
-1.48617e-005
-1.48489e-005
-1.48354e-005
-1.48214e-005
-1.4807e-005
-1.47928e-005
-1.47796e-005
-1.47676e-005
-1.47607e-005
-1.61241e-005
-1.61156e-005
-1.61027e-005
-1.60901e-005
-1.60777e-005
-1.60647e-005
-1.6051e-005
-1.60368e-005
-1.60221e-005
-1.6007e-005
-1.59921e-005
-1.59779e-005
-1.59657e-005
-1.59576e-005
-1.73489e-005
-1.73398e-005
-1.73261e-005
-1.73128e-005
-1.72996e-005
-1.72858e-005
-1.72715e-005
-1.72565e-005
-1.72411e-005
-1.72254e-005
-1.72099e-005
-1.7195e-005
-1.7182e-005
-1.71729e-005
-1.85924e-005
-1.85828e-005
-1.85683e-005
-1.85542e-005
-1.85402e-005
-1.85257e-005
-1.85106e-005
-1.8495e-005
-1.84789e-005
-1.84626e-005
-1.84465e-005
-1.8431e-005
-1.8417e-005
-1.84069e-005
-1.9855e-005
-1.98447e-005
-1.98293e-005
-1.98145e-005
-1.97997e-005
-1.97845e-005
-1.97687e-005
-1.97523e-005
-1.97356e-005
-1.97188e-005
-1.97021e-005
-1.96859e-005
-1.9671e-005
-1.966e-005
-2.11367e-005
-2.11259e-005
-2.11096e-005
-2.10939e-005
-2.10784e-005
-2.10624e-005
-2.10459e-005
-2.10288e-005
-2.10115e-005
-2.0994e-005
-2.09767e-005
-2.09599e-005
-2.0944e-005
-2.09321e-005
-2.24379e-005
-2.24264e-005
-2.24092e-005
-2.23927e-005
-2.23764e-005
-2.23596e-005
-2.23422e-005
-2.23245e-005
-2.23065e-005
-2.22884e-005
-2.22704e-005
-2.22529e-005
-2.22361e-005
-2.22232e-005
-2.37583e-005
-2.37462e-005
-2.37281e-005
-2.37107e-005
-2.36935e-005
-2.36759e-005
-2.36578e-005
-2.36393e-005
-2.36205e-005
-2.36017e-005
-2.35831e-005
-2.35648e-005
-2.35471e-005
-2.35334e-005
-2.5098e-005
-2.50852e-005
-2.50661e-005
-2.50478e-005
-2.50297e-005
-2.50112e-005
-2.49923e-005
-2.4973e-005
-2.49535e-005
-2.49339e-005
-2.49146e-005
-2.48955e-005
-2.4877e-005
-2.48627e-005
-2.64567e-005
-2.64432e-005
-2.64231e-005
-2.64038e-005
-2.63848e-005
-2.63654e-005
-2.63456e-005
-2.63254e-005
-2.63051e-005
-2.62848e-005
-2.62647e-005
-2.62449e-005
-2.62257e-005
-2.62108e-005
-2.78341e-005
-2.78199e-005
-2.77987e-005
-2.77784e-005
-2.77585e-005
-2.77382e-005
-2.77175e-005
-2.76964e-005
-2.76753e-005
-2.76542e-005
-2.76333e-005
-2.76128e-005
-2.75928e-005
-2.75775e-005
-2.92301e-005
-2.92152e-005
-2.91929e-005
-2.91715e-005
-2.91507e-005
-2.91294e-005
-2.91078e-005
-2.90859e-005
-2.90639e-005
-2.9042e-005
-2.90203e-005
-2.8999e-005
-2.89783e-005
-2.89626e-005
-3.06446e-005
-3.06289e-005
-3.06054e-005
-3.0583e-005
-3.05612e-005
-3.0539e-005
-3.05165e-005
-3.04937e-005
-3.04708e-005
-3.0448e-005
-3.04255e-005
-3.04033e-005
-3.03819e-005
-3.03657e-005
-3.20772e-005
-3.20607e-005
-3.20361e-005
-3.20126e-005
-3.19898e-005
-3.19667e-005
-3.19432e-005
-3.19195e-005
-3.18957e-005
-3.18719e-005
-3.18485e-005
-3.18254e-005
-3.18033e-005
-3.17865e-005
-3.35273e-005
-3.351e-005
-3.34843e-005
-3.34598e-005
-3.3436e-005
-3.34118e-005
-3.33874e-005
-3.33627e-005
-3.33378e-005
-3.33131e-005
-3.32887e-005
-3.32648e-005
-3.32418e-005
-3.32244e-005
-3.49941e-005
-3.4976e-005
-3.49491e-005
-3.49235e-005
-3.48987e-005
-3.48736e-005
-3.48481e-005
-3.48224e-005
-3.47966e-005
-3.47709e-005
-3.47455e-005
-3.47207e-005
-3.46969e-005
-3.4679e-005
-3.6477e-005
-3.64581e-005
-3.643e-005
-3.64032e-005
-3.63773e-005
-3.63512e-005
-3.63247e-005
-3.6298e-005
-3.62712e-005
-3.62445e-005
-3.62182e-005
-3.61925e-005
-3.61679e-005
-3.61495e-005
-3.79755e-005
-3.79558e-005
-3.79263e-005
-3.78984e-005
-3.78714e-005
-3.78442e-005
-3.78167e-005
-3.77889e-005
-3.77611e-005
-3.77334e-005
-3.77061e-005
-3.76795e-005
-3.76543e-005
-3.76354e-005
-3.94892e-005
-3.94686e-005
-3.94378e-005
-3.94086e-005
-3.93806e-005
-3.93523e-005
-3.93237e-005
-3.92949e-005
-3.9266e-005
-3.92373e-005
-3.92091e-005
-3.91815e-005
-3.91555e-005
-3.91362e-005
-4.10178e-005
-4.09962e-005
-4.09642e-005
-4.09338e-005
-4.09045e-005
-4.08751e-005
-4.08454e-005
-4.08155e-005
-4.07856e-005
-4.07558e-005
-4.07266e-005
-4.0698e-005
-4.0671e-005
-4.06511e-005
-4.25605e-005
-4.2538e-005
-4.25045e-005
-4.24729e-005
-4.24425e-005
-4.24119e-005
-4.23811e-005
-4.23501e-005
-4.23191e-005
-4.22882e-005
-4.22579e-005
-4.22282e-005
-4.22001e-005
-4.21795e-005
-4.41166e-005
-4.40931e-005
-4.40582e-005
-4.40253e-005
-4.39936e-005
-4.39619e-005
-4.39299e-005
-4.38977e-005
-4.38655e-005
-4.38335e-005
-4.38021e-005
-4.37713e-005
-4.3742e-005
-4.37205e-005
-4.56854e-005
-4.5661e-005
-4.56246e-005
-4.55903e-005
-4.55573e-005
-4.55243e-005
-4.54911e-005
-4.54577e-005
-4.54243e-005
-4.53911e-005
-4.53587e-005
-4.53275e-005
-4.52945e-005
-4.52731e-005
-4.72663e-005
-4.72408e-005
-4.72028e-005
-4.7167e-005
-4.71328e-005
-4.70984e-005
-4.70639e-005
-4.70292e-005
-4.69946e-005
-4.69601e-005
-4.69262e-005
-4.68929e-005
-4.68608e-005
-4.68376e-005
-4.88589e-005
-4.88322e-005
-4.87926e-005
-4.87554e-005
-4.87197e-005
-4.8684e-005
-4.8648e-005
-4.86121e-005
-4.85761e-005
-4.85403e-005
-4.8505e-005
-4.84701e-005
-4.84367e-005
-4.84122e-005
-5.04627e-005
-5.04347e-005
-5.03933e-005
-5.03544e-005
-5.03173e-005
-5.02801e-005
-5.02427e-005
-5.02054e-005
-5.01678e-005
-5.01306e-005
-5.00939e-005
-5.00577e-005
-5.00226e-005
-4.99969e-005
-5.20774e-005
-5.20481e-005
-5.20048e-005
-5.19642e-005
-5.19254e-005
-5.18867e-005
-5.18477e-005
-5.18087e-005
-5.17698e-005
-5.1731e-005
-5.16927e-005
-5.16548e-005
-5.16181e-005
-5.15911e-005
-5.37026e-005
-5.36719e-005
-5.36266e-005
-5.35841e-005
-5.35436e-005
-5.35031e-005
-5.34625e-005
-5.34218e-005
-5.33812e-005
-5.33407e-005
-5.33006e-005
-5.32609e-005
-5.32224e-005
-5.31943e-005
-5.5339e-005
-5.53068e-005
-5.52593e-005
-5.52148e-005
-5.51723e-005
-5.51299e-005
-5.50874e-005
-5.50449e-005
-5.50024e-005
-5.49601e-005
-5.49182e-005
-5.48767e-005
-5.48363e-005
-5.48067e-005
-5.6986e-005
-5.6952e-005
-5.69022e-005
-5.68556e-005
-5.68111e-005
-5.67666e-005
-5.67221e-005
-5.66775e-005
-5.6633e-005
-5.65887e-005
-5.65447e-005
-5.65012e-005
-5.64588e-005
-5.64279e-005
-5.8644e-005
-5.86082e-005
-5.85558e-005
-5.85067e-005
-5.84599e-005
-5.84132e-005
-5.83664e-005
-5.83197e-005
-5.8273e-005
-5.82264e-005
-5.81803e-005
-5.81345e-005
-5.80902e-005
-5.80581e-005
-6.0314e-005
-6.02761e-005
-6.02208e-005
-6.0169e-005
-6.01197e-005
-6.00705e-005
-6.00211e-005
-5.99719e-005
-5.99227e-005
-5.98737e-005
-5.98251e-005
-5.97771e-005
-5.97307e-005
-5.96975e-005
-6.19969e-005
-6.19566e-005
-6.18981e-005
-6.18434e-005
-6.17912e-005
-6.17391e-005
-6.1687e-005
-6.16349e-005
-6.1583e-005
-6.15312e-005
-6.148e-005
-6.14294e-005
-6.1381e-005
-6.13469e-005
-6.36939e-005
-6.36511e-005
-6.35891e-005
-6.35311e-005
-6.34758e-005
-6.34204e-005
-6.33651e-005
-6.33098e-005
-6.32547e-005
-6.31998e-005
-6.31456e-005
-6.30922e-005
-6.30417e-005
-6.30066e-005
-6.54067e-005
-6.53609e-005
-6.52949e-005
-6.52333e-005
-6.51744e-005
-6.51155e-005
-6.50564e-005
-6.49975e-005
-6.49388e-005
-6.48804e-005
-6.48227e-005
-6.47661e-005
-6.47132e-005
-6.46774e-005
-6.71376e-005
-6.70883e-005
-6.70178e-005
-6.69519e-005
-6.6889e-005
-6.68259e-005
-6.67627e-005
-6.66996e-005
-6.66367e-005
-6.65742e-005
-6.65124e-005
-6.64522e-005
-6.63967e-005
-6.63603e-005
-6.88895e-005
-6.88361e-005
-6.87605e-005
-6.86898e-005
-6.86222e-005
-6.85543e-005
-6.84863e-005
-6.84184e-005
-6.83506e-005
-6.82832e-005
-6.82167e-005
-6.8152e-005
-6.80936e-005
-6.80566e-005
-7.0665e-005
-7.06071e-005
-7.05257e-005
-7.04496e-005
-7.03767e-005
-7.03033e-005
-7.02297e-005
-7.01561e-005
-7.00826e-005
-7.00094e-005
-6.99372e-005
-6.98673e-005
-6.98054e-005
-6.97679e-005
-7.24674e-005
-7.24041e-005
-7.2316e-005
-7.22338e-005
-7.21549e-005
-7.20752e-005
-7.19952e-005
-7.19151e-005
-7.1835e-005
-7.1755e-005
-7.1676e-005
-7.15998e-005
-7.15339e-005
-7.14958e-005
-7.43004e-005
-7.42308e-005
-7.41349e-005
-7.40454e-005
-7.39596e-005
-7.38727e-005
-7.37853e-005
-7.36977e-005
-7.36098e-005
-7.35219e-005
-7.3435e-005
-7.33516e-005
-7.32809e-005
-7.32424e-005
-7.61679e-005
-7.60909e-005
-7.59861e-005
-7.58883e-005
-7.57944e-005
-7.56991e-005
-7.56031e-005
-7.55067e-005
-7.541e-005
-7.53129e-005
-7.52168e-005
-7.51249e-005
-7.50489e-005
-7.50099e-005
-7.80734e-005
-7.79879e-005
-7.78728e-005
-7.77656e-005
-7.76625e-005
-7.75574e-005
-7.74515e-005
-7.73451e-005
-7.7238e-005
-7.71303e-005
-7.70235e-005
-7.69219e-005
-7.68398e-005
-7.68005e-005
-8.00208e-005
-7.99251e-005
-7.97981e-005
-7.96801e-005
-7.95666e-005
-7.94505e-005
-7.93333e-005
-7.92154e-005
-7.90964e-005
-7.89764e-005
-7.88573e-005
-7.87445e-005
-7.86555e-005
-7.86163e-005
-8.20144e-005
-8.19068e-005
-8.17658e-005
-8.16352e-005
-8.15096e-005
-8.1381e-005
-8.12509e-005
-8.11198e-005
-8.09872e-005
-8.08532e-005
-8.072e-005
-8.05943e-005
-8.04978e-005
-8.04591e-005
-8.40587e-005
-8.39372e-005
-8.378e-005
-8.36348e-005
-8.34954e-005
-8.33521e-005
-8.32073e-005
-8.3061e-005
-8.29129e-005
-8.27627e-005
-8.26133e-005
-8.2473e-005
-8.23682e-005
-8.23308e-005
-8.61574e-005
-8.60198e-005
-8.5844e-005
-8.56822e-005
-8.55267e-005
-8.53667e-005
-8.52048e-005
-8.50412e-005
-8.48752e-005
-8.47065e-005
-8.45386e-005
-8.43816e-005
-8.42676e-005
-8.42326e-005
-8.83138e-005
-8.81573e-005
-8.79601e-005
-8.77793e-005
-8.76058e-005
-8.74268e-005
-8.72456e-005
-8.70624e-005
-8.6876e-005
-8.66863e-005
-8.64972e-005
-8.63213e-005
-8.61973e-005
-8.61658e-005
-9.05311e-005
-9.03528e-005
-9.01307e-005
-8.99282e-005
-8.97343e-005
-8.95338e-005
-8.9331e-005
-8.91257e-005
-8.89165e-005
-8.8703e-005
-8.849e-005
-8.82927e-005
-8.81578e-005
-8.81312e-005
-9.28127e-005
-9.26093e-005
-9.23587e-005
-9.21314e-005
-9.19142e-005
-9.16895e-005
-9.14621e-005
-9.1232e-005
-9.09972e-005
-9.0757e-005
-9.05172e-005
-9.0296e-005
-9.01494e-005
-9.01296e-005
-9.51609e-005
-9.49288e-005
-9.4646e-005
-9.43906e-005
-9.4147e-005
-9.38948e-005
-9.36399e-005
-9.33819e-005
-9.31184e-005
-9.28485e-005
-9.25786e-005
-9.23308e-005
-9.21717e-005
-9.21606e-005
-9.75758e-005
-9.73111e-005
-9.69918e-005
-9.6705e-005
-9.64322e-005
-9.61495e-005
-9.58639e-005
-9.55749e-005
-9.52795e-005
-9.49764e-005
-9.46732e-005
-9.43959e-005
-9.42235e-005
-9.42234e-005
-0.000100057
-9.97554e-005
-9.93948e-005
-9.90729e-005
-9.87677e-005
-9.84513e-005
-9.8132e-005
-9.78089e-005
-9.74784e-005
-9.71389e-005
-9.6799e-005
-9.64893e-005
-9.63029e-005
-9.63163e-005
-0.000102604
-0.00010226
-0.000101854
-0.000101493
-0.000101151
-0.000100798
-0.000100441
-0.000100081
-9.97121e-005
-9.93326e-005
-9.89526e-005
-9.86078e-005
-9.84068e-005
-9.84366e-005
-0.000105213
-0.000104823
-0.000104365
-0.000103961
-0.00010358
-0.000103185
-0.000102788
-0.000102387
-0.000101977
-0.000101554
-0.00010113
-0.000100747
-0.000100531
-0.00010058
-0.000107878
-0.000107437
-0.000106923
-0.000106471
-0.000106047
-0.000105608
-0.000105167
-0.000104722
-0.000104266
-0.000103797
-0.000103326
-0.000102902
-0.000102671
-0.000102742
-0.000110592
-0.000110094
-0.000109519
-0.000109016
-0.000108546
-0.000108059
-0.00010757
-0.000107078
-0.000106575
-0.000106055
-0.000105534
-0.000105066
-0.000104819
-0.000104917
-0.000113345
-0.000112786
-0.000112143
-0.000111585
-0.000111065
-0.000110526
-0.000109988
-0.000109446
-0.000108891
-0.000108319
-0.000107744
-0.000107231
-0.000106967
-0.000107094
-0.000116124
-0.000115498
-0.000114784
-0.000114166
-0.000113592
-0.000113
-0.000112408
-0.000111813
-0.000111205
-0.000110577
-0.000109947
-0.000109385
-0.000109106
-0.000109266
-0.000118912
-0.000118216
-0.000117425
-0.000116745
-0.000116115
-0.000115465
-0.000114817
-0.000114167
-0.000113503
-0.000112817
-0.000112129
-0.000111517
-0.000111223
-0.00011142
-0.000121691
-0.00012092
-0.000120048
-0.000119302
-0.000118613
-0.000117904
-0.000117198
-0.000116491
-0.00011577
-0.000115025
-0.000114277
-0.000113614
-0.000113306
-0.000113543
-0.000124438
-0.000123588
-0.000122632
-0.000121817
-0.000121068
-0.000120297
-0.000119532
-0.000118768
-0.000117988
-0.000117182
-0.000116374
-0.000115661
-0.000115339
-0.000115619
-0.000127127
-0.000126196
-0.000125153
-0.000124268
-0.000123458
-0.000122624
-0.000121799
-0.000120976
-0.000120138
-0.000119272
-0.000118403
-0.000117638
-0.000117306
-0.000117632
-0.000129732
-0.000128718
-0.000127587
-0.000126631
-0.000125758
-0.000124861
-0.000123976
-0.000123095
-0.000122198
-0.000121272
-0.000120344
-0.00011953
-0.000119188
-0.000119563
-0.000132224
-0.000131127
-0.000129906
-0.000128879
-0.000127944
-0.000126985
-0.00012604
-0.000125102
-0.000124148
-0.000123164
-0.000122177
-0.000121315
-0.000120967
-0.000121394
-0.000134574
-0.000133394
-0.000132084
-0.000130988
-0.000129992
-0.000128972
-0.000127969
-0.000126976
-0.000125967
-0.000124926
-0.000123885
-0.000122978
-0.000122626
-0.000123105
-0.000136755
-0.000135494
-0.0001341
-0.000132935
-0.00013188
-0.000130802
-0.000129744
-0.000128697
-0.000127636
-0.000126543
-0.000125449
-0.000124502
-0.000124149
-0.000124682
-0.000138743
-0.000137406
-0.00013593
-0.000134701
-0.000133591
-0.000132457
-0.000131347
-0.000130251
-0.000129143
-0.000128001
-0.00012686
-0.000125876
-0.000125526
-0.000126112
-0.000140512
-0.000139104
-0.000137554
-0.000136266
-0.000135106
-0.000133922
-0.000132765
-0.000131625
-0.000130475
-0.000129291
-0.000128109
-0.000127095
-0.000126752
-0.000127392
-0.00014204
-0.00014057
-0.000138953
-0.000137614
-0.00013641
-0.000135183
-0.000133986
-0.00013281
-0.000131625
-0.000130408
-0.000129194
-0.000128157
-0.000127827
-0.000128519
-0.000143308
-0.000141785
-0.000140112
-0.000138729
-0.00013749
-0.000136228
-0.000135
-0.000133796
-0.000132586
-0.000131345
-0.00013011
-0.000129062
-0.00012875
-0.000129491
-0.000144301
-0.000142737
-0.000141019
-0.000139602
-0.000138336
-0.000137048
-0.000135798
-0.000134576
-0.000133351
-0.000132097
-0.000130853
-0.000129803
-0.000129516
-0.000130304
-0.000145004
-0.000143412
-0.000141665
-0.000140227
-0.000138942
-0.000137638
-0.000136376
-0.000135145
-0.000133915
-0.000132659
-0.000131415
-0.000130373
-0.000130115
-0.000130944
-0.000145403
-0.000143799
-0.000142038
-0.000140591
-0.000139301
-0.000137992
-0.000136728
-0.000135498
-0.000134272
-0.000133024
-0.000131791
-0.000130765
-0.000130537
-0.0001314
-0.000145492
-0.000143892
-0.000142134
-0.000140692
-0.000139409
-0.000138108
-0.000136852
-0.000135634
-0.000134422
-0.000133191
-0.000131978
-0.000130977
-0.00013078
-0.000131667
-0.000145271
-0.000143692
-0.000141955
-0.000140531
-0.000139266
-0.000137984
-0.000136748
-0.000135552
-0.000134364
-0.00013316
-0.000131977
-0.000131009
-0.000130845
-0.000131745
-0.000144747
-0.000143208
-0.000141513
-0.000140121
-0.000138884
-0.000137631
-0.000136425
-0.00013526
-0.000134105
-0.000132938
-0.000131795
-0.000130867
-0.000130736
-0.00013164
-0.000143931
-0.000142452
-0.000140819
-0.000139476
-0.00013828
-0.000137069
-0.000135902
-0.000134776
-0.000133662
-0.000132541
-0.000131446
-0.000130566
-0.000130466
-0.000131359
-0.000142843
-0.000141443
-0.000139892
-0.000138614
-0.000137475
-0.000136318
-0.000135202
-0.000134125
-0.000133061
-0.000131992
-0.000130953
-0.000130124
-0.00013005
-0.000130917
-0.000141519
-0.000140216
-0.000138767
-0.000137569
-0.000136497
-0.000135407
-0.000134355
-0.000133336
-0.00013233
-0.00013132
-0.00013034
-0.000129564
-0.000129507
-0.00013033
-0.000140002
-0.000138815
-0.000137488
-0.000136383
-0.00013539
-0.000134377
-0.000133395
-0.000132443
-0.000131501
-0.000130556
-0.000129639
-0.000128914
-0.000128864
-0.000129622
-0.00013835
-0.000137296
-0.000136109
-0.000135111
-0.000134206
-0.000133278
-0.000132373
-0.000131491
-0.000130617
-0.000129738
-0.000128887
-0.000128213
-0.000128161
-0.000128838
-0.00013663
-0.000135722
-0.000134689
-0.000133807
-0.000132997
-0.000132161
-0.000131338
-0.000130528
-0.000129722
-0.00012891
-0.000128125
-0.000127505
-0.000127444
-0.000128025
-0.000134938
-0.000134185
-0.000133315
-0.000132552
-0.000131836
-0.00013109
-0.000130346
-0.000129606
-0.000128863
-0.000128116
-0.000127395
-0.000126825
-0.000126747
-0.000127215
-0.00013339
-0.000132795
-0.000132086
-0.000131438
-0.000130809
-0.000130144
-0.000129467
-0.000128783
-0.000128092
-0.000127399
-0.000126735
-0.000126211
-0.00012611
-0.000126459
-0.000132137
-0.000131689
-0.000131121
-0.000130565
-0.000130002
-0.000129395
-0.000128763
-0.000128113
-0.00012745
-0.000126789
-0.000126164
-0.000125673
-0.000125544
-0.00012578
-0.000131345
-0.000131015
-0.000130539
-0.000130014
-0.000129446
-0.00012883
-0.000128182
-0.000127515
-0.000126844
-0.000126192
-0.000125598
-0.000125152
-0.000125041
-0.000125226
-5.03141e-007
-5.03625e-007
-5.03731e-007
-5.03787e-007
-5.03751e-007
-5.03635e-007
-5.03468e-007
-5.03257e-007
-5.03008e-007
-5.02735e-007
-5.02457e-007
-5.02178e-007
-5.01889e-007
-5.01471e-007
-1.53737e-006
-1.53755e-006
-1.53715e-006
-1.53666e-006
-1.53603e-006
-1.53525e-006
-1.53431e-006
-1.53325e-006
-1.53207e-006
-1.53081e-006
-1.52955e-006
-1.52834e-006
-1.52729e-006
-1.52633e-006
-2.59982e-006
-2.59851e-006
-2.59662e-006
-2.59484e-006
-2.59305e-006
-2.59115e-006
-2.58908e-006
-2.58685e-006
-2.58446e-006
-2.58198e-006
-2.57956e-006
-2.57736e-006
-2.57557e-006
-2.57424e-006
-3.66718e-006
-3.66527e-006
-3.66239e-006
-3.6596e-006
-3.65679e-006
-3.65383e-006
-3.65067e-006
-3.64732e-006
-3.6438e-006
-3.6402e-006
-3.63673e-006
-3.63357e-006
-3.63104e-006
-3.62922e-006
-4.73992e-006
-4.73741e-006
-4.73365e-006
-4.72999e-006
-4.72629e-006
-4.72238e-006
-4.71822e-006
-4.71382e-006
-4.70921e-006
-4.70452e-006
-4.70001e-006
-4.69593e-006
-4.69268e-006
-4.69034e-006
-5.8199e-006
-5.81683e-006
-5.8122e-006
-5.80768e-006
-5.80313e-006
-5.79836e-006
-5.79332e-006
-5.78797e-006
-5.7823e-006
-5.77646e-006
-5.77083e-006
-5.7658e-006
-5.76182e-006
-5.75899e-006
-6.90861e-006
-6.90496e-006
-6.89946e-006
-6.8941e-006
-6.88869e-006
-6.88303e-006
-6.87706e-006
-6.87078e-006
-6.86417e-006
-6.85737e-006
-6.85073e-006
-6.8447e-006
-6.83991e-006
-6.83653e-006
-8.00765e-006
-8.00344e-006
-7.99708e-006
-7.99088e-006
-7.98463e-006
-7.97809e-006
-7.97119e-006
-7.96395e-006
-7.95641e-006
-7.94869e-006
-7.94114e-006
-7.9342e-006
-7.92856e-006
-7.92459e-006
-9.1185e-006
-9.11374e-006
-9.10654e-006
-9.09951e-006
-9.09243e-006
-9.08503e-006
-9.07724e-006
-9.06908e-006
-9.0606e-006
-9.05196e-006
-9.04349e-006
-9.03564e-006
-9.02913e-006
-9.02451e-006
-1.02424e-005
-1.02371e-005
-1.02291e-005
-1.02212e-005
-1.02133e-005
-1.02051e-005
-1.01965e-005
-1.01874e-005
-1.0178e-005
-1.01684e-005
-1.01591e-005
-1.01505e-005
-1.01431e-005
-1.01377e-005
-1.13804e-005
-1.13746e-005
-1.13658e-005
-1.13572e-005
-1.13485e-005
-1.13395e-005
-1.133e-005
-1.13201e-005
-1.13098e-005
-1.12993e-005
-1.12891e-005
-1.12797e-005
-1.12715e-005
-1.12654e-005
-1.25336e-005
-1.25273e-005
-1.25177e-005
-1.25084e-005
-1.2499e-005
-1.24892e-005
-1.24789e-005
-1.24681e-005
-1.2457e-005
-1.24457e-005
-1.24347e-005
-1.24243e-005
-1.24153e-005
-1.24085e-005
-1.3703e-005
-1.36962e-005
-1.36858e-005
-1.36757e-005
-1.36656e-005
-1.3655e-005
-1.3644e-005
-1.36324e-005
-1.36205e-005
-1.36084e-005
-1.35966e-005
-1.35854e-005
-1.35755e-005
-1.35679e-005
-1.48893e-005
-1.48819e-005
-1.48709e-005
-1.48601e-005
-1.48492e-005
-1.48379e-005
-1.48261e-005
-1.48138e-005
-1.48011e-005
-1.47882e-005
-1.47756e-005
-1.47636e-005
-1.47527e-005
-1.47443e-005
-1.60932e-005
-1.60853e-005
-1.60736e-005
-1.6062e-005
-1.60505e-005
-1.60384e-005
-1.60259e-005
-1.60128e-005
-1.59994e-005
-1.59858e-005
-1.59724e-005
-1.59596e-005
-1.59478e-005
-1.59384e-005
-1.73153e-005
-1.73069e-005
-1.72944e-005
-1.72822e-005
-1.72699e-005
-1.72572e-005
-1.72439e-005
-1.72301e-005
-1.72159e-005
-1.72016e-005
-1.71874e-005
-1.71738e-005
-1.71612e-005
-1.71507e-005
-1.8556e-005
-1.85471e-005
-1.85339e-005
-1.8521e-005
-1.8508e-005
-1.84945e-005
-1.84805e-005
-1.8466e-005
-1.84511e-005
-1.8436e-005
-1.84212e-005
-1.84068e-005
-1.83935e-005
-1.83814e-005
-1.98156e-005
-1.98062e-005
-1.97923e-005
-1.97786e-005
-1.97649e-005
-1.97507e-005
-1.9736e-005
-1.97207e-005
-1.97051e-005
-1.96894e-005
-1.96738e-005
-1.96586e-005
-1.9644e-005
-1.96319e-005
-2.10944e-005
-2.10845e-005
-2.10698e-005
-2.10554e-005
-2.1041e-005
-2.1026e-005
-2.10105e-005
-2.09946e-005
-2.09783e-005
-2.09619e-005
-2.09456e-005
-2.09296e-005
-2.0914e-005
-2.09011e-005
-2.23925e-005
-2.2382e-005
-2.23665e-005
-2.23513e-005
-2.23362e-005
-2.23205e-005
-2.23043e-005
-2.22876e-005
-2.22706e-005
-2.22534e-005
-2.22364e-005
-2.22196e-005
-2.22031e-005
-2.21894e-005
-2.37099e-005
-2.36988e-005
-2.36825e-005
-2.36665e-005
-2.36506e-005
-2.36341e-005
-2.36172e-005
-2.35997e-005
-2.3582e-005
-2.35641e-005
-2.35464e-005
-2.35288e-005
-2.35113e-005
-2.34969e-005
-2.50464e-005
-2.50347e-005
-2.50175e-005
-2.50007e-005
-2.4984e-005
-2.49668e-005
-2.4949e-005
-2.49308e-005
-2.49124e-005
-2.48938e-005
-2.48753e-005
-2.4857e-005
-2.48387e-005
-2.48236e-005
-2.64019e-005
-2.63896e-005
-2.63715e-005
-2.63538e-005
-2.63363e-005
-2.63183e-005
-2.62997e-005
-2.62808e-005
-2.62616e-005
-2.62423e-005
-2.62231e-005
-2.62041e-005
-2.61851e-005
-2.61693e-005
-2.77762e-005
-2.77633e-005
-2.77442e-005
-2.77256e-005
-2.77073e-005
-2.76884e-005
-2.7669e-005
-2.76493e-005
-2.76294e-005
-2.76095e-005
-2.75896e-005
-2.75699e-005
-2.75502e-005
-2.75339e-005
-2.91691e-005
-2.91555e-005
-2.91354e-005
-2.91159e-005
-2.90967e-005
-2.9077e-005
-2.90569e-005
-2.90364e-005
-2.90158e-005
-2.89951e-005
-2.89746e-005
-2.89542e-005
-2.89338e-005
-2.8917e-005
-3.05803e-005
-3.05661e-005
-3.0545e-005
-3.05246e-005
-3.05045e-005
-3.04839e-005
-3.0463e-005
-3.04417e-005
-3.04203e-005
-3.03989e-005
-3.03777e-005
-3.03566e-005
-3.03355e-005
-3.03182e-005
-3.20096e-005
-3.19947e-005
-3.19726e-005
-3.19512e-005
-3.19302e-005
-3.19088e-005
-3.1887e-005
-3.18649e-005
-3.18427e-005
-3.18205e-005
-3.17985e-005
-3.17767e-005
-3.17549e-005
-3.1737e-005
-3.34564e-005
-3.34407e-005
-3.34176e-005
-3.33953e-005
-3.33734e-005
-3.33511e-005
-3.33284e-005
-3.33055e-005
-3.32824e-005
-3.32594e-005
-3.32365e-005
-3.32139e-005
-3.31914e-005
-3.31728e-005
-3.49199e-005
-3.49035e-005
-3.48794e-005
-3.4856e-005
-3.48332e-005
-3.481e-005
-3.47865e-005
-3.47626e-005
-3.47387e-005
-3.47148e-005
-3.46912e-005
-3.46678e-005
-3.46445e-005
-3.46253e-005
-3.63996e-005
-3.63824e-005
-3.63571e-005
-3.63328e-005
-3.6309e-005
-3.62849e-005
-3.62604e-005
-3.62357e-005
-3.62109e-005
-3.61861e-005
-3.61617e-005
-3.61375e-005
-3.61135e-005
-3.60937e-005
-3.78948e-005
-3.78768e-005
-3.78504e-005
-3.7825e-005
-3.78003e-005
-3.77752e-005
-3.77498e-005
-3.77241e-005
-3.76984e-005
-3.76728e-005
-3.76476e-005
-3.76227e-005
-3.75979e-005
-3.75775e-005
-3.94051e-005
-3.93864e-005
-3.93588e-005
-3.93324e-005
-3.93066e-005
-3.92806e-005
-3.92542e-005
-3.92276e-005
-3.9201e-005
-3.91745e-005
-3.91484e-005
-3.91227e-005
-3.90971e-005
-3.9076e-005
-4.09303e-005
-4.09107e-005
-4.0882e-005
-4.08544e-005
-4.08276e-005
-4.08006e-005
-4.07732e-005
-4.07457e-005
-4.07181e-005
-4.06907e-005
-4.06637e-005
-4.0637e-005
-4.06104e-005
-4.05884e-005
-4.24695e-005
-4.24491e-005
-4.24191e-005
-4.23905e-005
-4.23626e-005
-4.23345e-005
-4.23061e-005
-4.22776e-005
-4.2249e-005
-4.22205e-005
-4.21925e-005
-4.21647e-005
-4.2137e-005
-4.2114e-005
-4.4022e-005
-4.40007e-005
-4.39695e-005
-4.39396e-005
-4.39106e-005
-4.38814e-005
-4.3852e-005
-4.38223e-005
-4.37927e-005
-4.37632e-005
-4.3734e-005
-4.37053e-005
-4.36767e-005
-4.36513e-005
-4.55871e-005
-4.55649e-005
-4.55323e-005
-4.55012e-005
-4.54711e-005
-4.54407e-005
-4.54101e-005
-4.53793e-005
-4.53486e-005
-4.53179e-005
-4.52876e-005
-4.52575e-005
-4.52268e-005
-4.52015e-005
-4.71642e-005
-4.71411e-005
-4.71071e-005
-4.70746e-005
-4.70432e-005
-4.70116e-005
-4.69798e-005
-4.69478e-005
-4.69158e-005
-4.68839e-005
-4.68524e-005
-4.68209e-005
-4.67887e-005
-4.67623e-005
-4.87527e-005
-4.87285e-005
-4.8693e-005
-4.86592e-005
-4.86265e-005
-4.85936e-005
-4.85605e-005
-4.85273e-005
-4.8494e-005
-4.84609e-005
-4.8428e-005
-4.83949e-005
-4.83611e-005
-4.83333e-005
-5.03523e-005
-5.0327e-005
-5.02899e-005
-5.02546e-005
-5.02204e-005
-5.01862e-005
-5.01517e-005
-5.01172e-005
-5.00822e-005
-5.00478e-005
-5.00136e-005
-4.99791e-005
-4.99436e-005
-4.99143e-005
-5.19623e-005
-5.19358e-005
-5.18969e-005
-5.186e-005
-5.18245e-005
-5.17887e-005
-5.17528e-005
-5.17167e-005
-5.16806e-005
-5.16446e-005
-5.16088e-005
-5.15727e-005
-5.15355e-005
-5.15047e-005
-5.35826e-005
-5.35548e-005
-5.35141e-005
-5.34755e-005
-5.34382e-005
-5.34009e-005
-5.33633e-005
-5.33257e-005
-5.3288e-005
-5.32505e-005
-5.32131e-005
-5.31754e-005
-5.31363e-005
-5.3104e-005
-5.52133e-005
-5.51841e-005
-5.51414e-005
-5.5101e-005
-5.50619e-005
-5.50228e-005
-5.49834e-005
-5.49441e-005
-5.49048e-005
-5.48656e-005
-5.48265e-005
-5.47871e-005
-5.47462e-005
-5.47123e-005
-5.68541e-005
-5.68233e-005
-5.67784e-005
-5.67359e-005
-5.6695e-005
-5.66539e-005
-5.66127e-005
-5.65716e-005
-5.65305e-005
-5.64895e-005
-5.64488e-005
-5.64076e-005
-5.63648e-005
-5.63294e-005
-5.85053e-005
-5.84727e-005
-5.84254e-005
-5.83807e-005
-5.83376e-005
-5.82944e-005
-5.82511e-005
-5.8208e-005
-5.81649e-005
-5.81221e-005
-5.80796e-005
-5.80368e-005
-5.79923e-005
-5.79555e-005
-6.01672e-005
-6.01327e-005
-6.00828e-005
-6.00356e-005
-5.99901e-005
-5.99445e-005
-5.9899e-005
-5.98536e-005
-5.98085e-005
-5.97637e-005
-5.97193e-005
-5.96749e-005
-5.96289e-005
-5.95909e-005
-6.18408e-005
-6.18041e-005
-6.17513e-005
-6.17013e-005
-6.16532e-005
-6.1605e-005
-6.15568e-005
-6.1509e-005
-6.14615e-005
-6.14146e-005
-6.13684e-005
-6.13223e-005
-6.12749e-005
-6.1236e-005
-6.3527e-005
-6.34878e-005
-6.34317e-005
-6.33787e-005
-6.33277e-005
-6.32766e-005
-6.32256e-005
-6.3175e-005
-6.31249e-005
-6.30757e-005
-6.30274e-005
-6.29797e-005
-6.29311e-005
-6.28914e-005
-6.52271e-005
-6.5185e-005
-6.51252e-005
-6.50688e-005
-6.50145e-005
-6.49601e-005
-6.49059e-005
-6.48522e-005
-6.47994e-005
-6.47476e-005
-6.46972e-005
-6.46478e-005
-6.45981e-005
-6.4558e-005
-6.69431e-005
-6.68977e-005
-6.68337e-005
-6.67734e-005
-6.67153e-005
-6.66571e-005
-6.65992e-005
-6.65421e-005
-6.6486e-005
-6.64314e-005
-6.63787e-005
-6.63276e-005
-6.62771e-005
-6.62368e-005
-6.86771e-005
-6.8628e-005
-6.85592e-005
-6.84945e-005
-6.84321e-005
-6.83695e-005
-6.83074e-005
-6.82463e-005
-6.81867e-005
-6.81289e-005
-6.80736e-005
-6.80207e-005
-6.79693e-005
-6.7929e-005
-7.04317e-005
-7.03782e-005
-7.03039e-005
-7.02342e-005
-7.01668e-005
-7.00994e-005
-7.00325e-005
-6.99669e-005
-6.99031e-005
-6.98416e-005
-6.97834e-005
-6.97285e-005
-6.96764e-005
-6.96363e-005
-7.22097e-005
-7.21509e-005
-7.20703e-005
-7.19948e-005
-7.19218e-005
-7.18487e-005
-7.17763e-005
-7.17055e-005
-7.1637e-005
-7.15714e-005
-7.15099e-005
-7.14529e-005
-7.14002e-005
-7.13607e-005
-7.4014e-005