/*--------------------------------*- C++ -*----------------------------------*\
| =========                 |                                                 |
| \\      /  F ield         | OpenFOAM: The Open Source CFD Toolbox           |
|  \\    /   O peration     | Version:  5.x                                   |
|   \\  /    A nd           | Web:      www.OpenFOAM.org                      |
|    \\/     M anipulation  |                                                 |
\*---------------------------------------------------------------------------*/
/*   Windows 32 and 64 bit porting by blueCAPE: http://www.bluecape.com.pt   *\
|  Based on Windows porting (2.0.x v4) by Symscape: http://www.symscape.com   |
\*---------------------------------------------------------------------------*/
FoamFile
{
    version     2.0;
    format      ascii;
    class       volScalarField;
    location    "1.9";
    object      p;
}
// * * * * * * * * * * * * * * * * * * * * * * * * * * * * * * * * * * * * * //

dimensions      [0 2 -2 0 0 0 0];

internalField   nonuniform List<scalar> 
141075
(
-2.97352e-007
-3.00905e-007
-3.02351e-007
-3.04041e-007
-3.05485e-007
-3.06917e-007
-3.08419e-007
-3.10057e-007
-3.1186e-007
-3.13825e-007
-3.1591e-007
-3.17999e-007
-3.1998e-007
-3.21678e-007
-8.94682e-007
-8.99157e-007
-9.02133e-007
-9.05254e-007
-9.08623e-007
-9.12306e-007
-9.16372e-007
-9.20856e-007
-9.25759e-007
-9.31004e-007
-9.3638e-007
-9.41492e-007
-9.45552e-007
-9.48277e-007
-1.48089e-006
-1.48052e-006
-1.48157e-006
-1.48375e-006
-1.48704e-006
-1.49129e-006
-1.49645e-006
-1.50252e-006
-1.50937e-006
-1.51681e-006
-1.52458e-006
-1.5321e-006
-1.53805e-006
-1.54227e-006
-2.07161e-006
-2.07131e-006
-2.07203e-006
-2.0742e-006
-2.07784e-006
-2.08284e-006
-2.08916e-006
-2.09673e-006
-2.10548e-006
-2.11519e-006
-2.12549e-006
-2.13555e-006
-2.14351e-006
-2.14918e-006
-2.65707e-006
-2.65656e-006
-2.65718e-006
-2.65962e-006
-2.66383e-006
-2.66966e-006
-2.67714e-006
-2.68623e-006
-2.69684e-006
-2.70872e-006
-2.72137e-006
-2.73378e-006
-2.74357e-006
-2.75048e-006
-3.23476e-006
-3.23395e-006
-3.23438e-006
-3.23699e-006
-3.24171e-006
-3.24832e-006
-3.25686e-006
-3.26732e-006
-3.27959e-006
-3.29338e-006
-3.30814e-006
-3.32264e-006
-3.33402e-006
-3.34209e-006
-3.8049e-006
-3.80369e-006
-3.80383e-006
-3.80634e-006
-3.81122e-006
-3.81825e-006
-3.82744e-006
-3.83881e-006
-3.85225e-006
-3.86746e-006
-3.8838e-006
-3.89993e-006
-3.91258e-006
-3.92162e-006
-4.37031e-006
-4.36858e-006
-4.36834e-006
-4.37066e-006
-4.37546e-006
-4.38251e-006
-4.3919e-006
-4.40367e-006
-4.41776e-006
-4.43385e-006
-4.4513e-006
-4.46865e-006
-4.48223e-006
-4.49204e-006
-4.93603e-006
-4.93359e-006
-4.9326e-006
-4.93433e-006
-4.93874e-006
-4.94548e-006
-4.95466e-006
-4.96635e-006
-4.98053e-006
-4.9969e-006
-5.01483e-006
-5.03277e-006
-5.04677e-006
-5.057e-006
-5.50976e-006
-5.50658e-006
-5.50479e-006
-5.50567e-006
-5.50916e-006
-5.51496e-006
-5.52321e-006
-5.53406e-006
-5.5475e-006
-5.56328e-006
-5.58077e-006
-5.59841e-006
-5.61208e-006
-5.62227e-006
-6.09992e-006
-6.09593e-006
-6.09323e-006
-6.09315e-006
-6.09553e-006
-6.10004e-006
-6.10687e-006
-6.1162e-006
-6.1281e-006
-6.1424e-006
-6.15853e-006
-6.17499e-006
-6.18766e-006
-6.19743e-006
-6.7158e-006
-6.71089e-006
-6.70705e-006
-6.70577e-006
-6.70689e-006
-6.70993e-006
-6.7151e-006
-6.72263e-006
-6.73266e-006
-6.74507e-006
-6.75941e-006
-6.77428e-006
-6.78568e-006
-6.7948e-006
-7.36677e-006
-7.36105e-006
-7.35607e-006
-7.35343e-006
-7.353e-006
-7.35429e-006
-7.35755e-006
-7.36305e-006
-7.37094e-006
-7.38119e-006
-7.39344e-006
-7.40641e-006
-7.41628e-006
-7.42451e-006
-8.05977e-006
-8.05342e-006
-8.04751e-006
-8.04361e-006
-8.04159e-006
-8.04102e-006
-8.04215e-006
-8.04531e-006
-8.05069e-006
-8.05832e-006
-8.06791e-006
-8.07833e-006
-8.08614e-006
-8.09305e-006
-8.79828e-006
-8.79142e-006
-8.7846e-006
-8.77953e-006
-8.77609e-006
-8.77378e-006
-8.77284e-006
-8.77358e-006
-8.77619e-006
-8.78074e-006
-8.78706e-006
-8.79426e-006
-8.79941e-006
-8.80448e-006
-9.58142e-006
-9.5743e-006
-9.56674e-006
-9.5606e-006
-9.55573e-006
-9.55164e-006
-9.54856e-006
-9.54677e-006
-9.54643e-006
-9.54763e-006
-9.55032e-006
-9.55383e-006
-9.55594e-006
-9.55876e-006
-1.04027e-005
-1.03954e-005
-1.03872e-005
-1.03801e-005
-1.03738e-005
-1.0368e-005
-1.03629e-005
-1.03585e-005
-1.03552e-005
-1.03529e-005
-1.03517e-005
-1.03511e-005
-1.03498e-005
-1.03499e-005
-1.12516e-005
-1.12441e-005
-1.12351e-005
-1.12269e-005
-1.12193e-005
-1.12118e-005
-1.12044e-005
-1.11974e-005
-1.11908e-005
-1.11847e-005
-1.11792e-005
-1.11741e-005
-1.11689e-005
-1.1166e-005
-1.21156e-005
-1.2108e-005
-1.20982e-005
-1.20887e-005
-1.20794e-005
-1.20698e-005
-1.20598e-005
-1.20498e-005
-1.20395e-005
-1.2029e-005
-1.20186e-005
-1.20085e-005
-1.1999e-005
-1.19926e-005
-1.29815e-005
-1.29737e-005
-1.29629e-005
-1.2952e-005
-1.29408e-005
-1.29287e-005
-1.29158e-005
-1.29022e-005
-1.28878e-005
-1.28725e-005
-1.28568e-005
-1.28411e-005
-1.2827e-005
-1.28168e-005
-1.38354e-005
-1.38272e-005
-1.38153e-005
-1.38028e-005
-1.37895e-005
-1.37748e-005
-1.37587e-005
-1.37413e-005
-1.37223e-005
-1.37018e-005
-1.36804e-005
-1.36587e-005
-1.36395e-005
-1.36253e-005
-1.46632e-005
-1.46545e-005
-1.46413e-005
-1.4627e-005
-1.46114e-005
-1.45938e-005
-1.45743e-005
-1.45527e-005
-1.45288e-005
-1.45027e-005
-1.44749e-005
-1.44467e-005
-1.44219e-005
-1.44032e-005
-1.54488e-005
-1.54396e-005
-1.54249e-005
-1.54087e-005
-1.53907e-005
-1.53701e-005
-1.53469e-005
-1.53209e-005
-1.52918e-005
-1.52598e-005
-1.52254e-005
-1.51902e-005
-1.51595e-005
-1.51363e-005
-1.61754e-005
-1.61651e-005
-1.61488e-005
-1.61306e-005
-1.61102e-005
-1.60868e-005
-1.60602e-005
-1.60301e-005
-1.59963e-005
-1.59587e-005
-1.59181e-005
-1.58767e-005
-1.58407e-005
-1.58137e-005
-1.68288e-005
-1.6817e-005
-1.67985e-005
-1.67782e-005
-1.67556e-005
-1.67297e-005
-1.67004e-005
-1.66673e-005
-1.66299e-005
-1.65883e-005
-1.65434e-005
-1.64976e-005
-1.64583e-005
-1.64296e-005
-1.74019e-005
-1.73878e-005
-1.73667e-005
-1.73442e-005
-1.73195e-005
-1.72915e-005
-1.72602e-005
-1.72252e-005
-1.7186e-005
-1.71426e-005
-1.70961e-005
-1.7049e-005
-1.70094e-005
-1.69817e-005
-1.78983e-005
-1.78811e-005
-1.78569e-005
-1.78318e-005
-1.78052e-005
-1.77755e-005
-1.77428e-005
-1.77068e-005
-1.76672e-005
-1.76239e-005
-1.7578e-005
-1.75323e-005
-1.74948e-005
-1.74703e-005
-1.83348e-005
-1.83138e-005
-1.82858e-005
-1.82578e-005
-1.82288e-005
-1.8197e-005
-1.81628e-005
-1.81258e-005
-1.80858e-005
-1.80428e-005
-1.7998e-005
-1.79539e-005
-1.7919e-005
-1.78982e-005
-1.87358e-005
-1.87108e-005
-1.86786e-005
-1.86471e-005
-1.86149e-005
-1.85799e-005
-1.85427e-005
-1.85032e-005
-1.8461e-005
-1.84163e-005
-1.83701e-005
-1.83255e-005
-1.82909e-005
-1.8272e-005
-1.9124e-005
-1.90948e-005
-1.90581e-005
-1.90225e-005
-1.89862e-005
-1.89467e-005
-1.89047e-005
-1.88603e-005
-1.88131e-005
-1.87632e-005
-1.87119e-005
-1.86626e-005
-1.86245e-005
-1.86046e-005
-1.95138e-005
-1.94802e-005
-1.94385e-005
-1.93981e-005
-1.93569e-005
-1.93117e-005
-1.92635e-005
-1.92123e-005
-1.91578e-005
-1.91e-005
-1.90405e-005
-1.89833e-005
-1.89388e-005
-1.89158e-005
-1.99117e-005
-1.98732e-005
-1.98258e-005
-1.978e-005
-1.97332e-005
-1.96817e-005
-1.96269e-005
-1.95685e-005
-1.95063e-005
-1.94403e-005
-1.93725e-005
-1.93072e-005
-1.92565e-005
-1.92308e-005
-2.03244e-005
-2.028e-005
-2.02262e-005
-2.01747e-005
-2.01223e-005
-2.0065e-005
-2.00042e-005
-1.99399e-005
-1.98717e-005
-1.97999e-005
-1.97264e-005
-1.96561e-005
-1.9602e-005
-1.95762e-005
-2.07663e-005
-2.07152e-005
-2.06545e-005
-2.05973e-005
-2.054e-005
-2.04777e-005
-2.04125e-005
-2.03444e-005
-2.0273e-005
-2.01984e-005
-2.01227e-005
-2.00509e-005
-1.99969e-005
-1.99736e-005
-2.12583e-005
-2.11998e-005
-2.1132e-005
-2.10695e-005
-2.1008e-005
-2.09419e-005
-2.08736e-005
-2.08032e-005
-2.07302e-005
-2.06544e-005
-2.0578e-005
-2.05062e-005
-2.04537e-005
-2.04342e-005
-2.18191e-005
-2.17528e-005
-2.16776e-005
-2.16098e-005
-2.15443e-005
-2.14745e-005
-2.14034e-005
-2.13307e-005
-2.12559e-005
-2.11785e-005
-2.11006e-005
-2.10278e-005
-2.09762e-005
-2.09608e-005
-2.24573e-005
-2.23827e-005
-2.22993e-005
-2.22256e-005
-2.21553e-005
-2.20811e-005
-2.20061e-005
-2.19302e-005
-2.18523e-005
-2.17718e-005
-2.16907e-005
-2.16154e-005
-2.15639e-005
-2.15527e-005
-2.31722e-005
-2.30881e-005
-2.29954e-005
-2.29145e-005
-2.28384e-005
-2.27584e-005
-2.26782e-005
-2.25977e-005
-2.25154e-005
-2.24305e-005
-2.23452e-005
-2.22668e-005
-2.22157e-005
-2.221e-005
-2.39608e-005
-2.38657e-005
-2.37623e-005
-2.36732e-005
-2.35901e-005
-2.35032e-005
-2.34169e-005
-2.33307e-005
-2.32433e-005
-2.31535e-005
-2.30637e-005
-2.29823e-005
-2.29324e-005
-2.2934e-005
-2.48229e-005
-2.47155e-005
-2.46001e-005
-2.45017e-005
-2.44111e-005
-2.43169e-005
-2.4224e-005
-2.4132e-005
-2.40392e-005
-2.39441e-005
-2.38496e-005
-2.37646e-005
-2.3716e-005
-2.37253e-005
-2.57608e-005
-2.56396e-005
-2.55108e-005
-2.54023e-005
-2.53033e-005
-2.52011e-005
-2.51011e-005
-2.50028e-005
-2.49039e-005
-2.48026e-005
-2.47017e-005
-2.46115e-005
-2.45626e-005
-2.45787e-005
-2.67747e-005
-2.66382e-005
-2.64944e-005
-2.63742e-005
-2.62653e-005
-2.61531e-005
-2.60439e-005
-2.5937e-005
-2.58296e-005
-2.57194e-005
-2.56094e-005
-2.55112e-005
-2.54601e-005
-2.54821e-005
-2.78611e-005
-2.77075e-005
-2.75467e-005
-2.74127e-005
-2.72914e-005
-2.71664e-005
-2.70448e-005
-2.69257e-005
-2.6806e-005
-2.66828e-005
-2.65597e-005
-2.64501e-005
-2.63944e-005
-2.64218e-005
-2.90154e-005
-2.88425e-005
-2.86623e-005
-2.85122e-005
-2.83762e-005
-2.82354e-005
-2.8098e-005
-2.7963e-005
-2.78268e-005
-2.76862e-005
-2.75454e-005
-2.74199e-005
-2.73564e-005
-2.73878e-005
-3.02321e-005
-3.00377e-005
-2.98356e-005
-2.96671e-005
-2.9514e-005
-2.93547e-005
-2.91986e-005
-2.90444e-005
-2.88879e-005
-2.87258e-005
-2.85627e-005
-2.84168e-005
-2.83421e-005
-2.83763e-005
-3.15031e-005
-3.12851e-005
-3.10587e-005
-3.08694e-005
-3.06967e-005
-3.05162e-005
-3.03387e-005
-3.01626e-005
-2.99831e-005
-2.97965e-005
-2.96084e-005
-2.94397e-005
-2.93526e-005
-2.93899e-005
-3.28192e-005
-3.2575e-005
-3.23219e-005
-3.21098e-005
-3.19153e-005
-3.17114e-005
-3.15103e-005
-3.13104e-005
-3.11064e-005
-3.08944e-005
-3.06809e-005
-3.04897e-005
-3.03915e-005
-3.04343e-005
-3.41736e-005
-3.39004e-005
-3.36181e-005
-3.33815e-005
-3.31642e-005
-3.29357e-005
-3.27102e-005
-3.24859e-005
-3.22572e-005
-3.20197e-005
-3.17811e-005
-3.15681e-005
-3.14604e-005
-3.1511e-005
-3.55648e-005
-3.526e-005
-3.49458e-005
-3.4683e-005
-3.44418e-005
-3.41882e-005
-3.39381e-005
-3.36895e-005
-3.34363e-005
-3.31735e-005
-3.29095e-005
-3.26746e-005
-3.25576e-005
-3.26175e-005
-3.69925e-005
-3.66532e-005
-3.63049e-005
-3.60144e-005
-3.57481e-005
-3.54685e-005
-3.51933e-005
-3.49205e-005
-3.46429e-005
-3.43549e-005
-3.40657e-005
-3.38087e-005
-3.36833e-005
-3.37543e-005
-3.84563e-005
-3.80795e-005
-3.76946e-005
-3.73748e-005
-3.70829e-005
-3.67766e-005
-3.64763e-005
-3.61795e-005
-3.58782e-005
-3.55659e-005
-3.52526e-005
-3.49752e-005
-3.48436e-005
-3.49291e-005
-3.99619e-005
-3.95442e-005
-3.91199e-005
-3.87695e-005
-3.84514e-005
-3.81185e-005
-3.77935e-005
-3.74737e-005
-3.715e-005
-3.6815e-005
-3.64793e-005
-3.61833e-005
-3.60482e-005
-3.61515e-005
-4.15229e-005
-4.10607e-005
-4.0594e-005
-4.02115e-005
-3.98664e-005
-3.95066e-005
-3.91573e-005
-3.88152e-005
-3.84699e-005
-3.81131e-005
-3.77556e-005
-3.74418e-005
-3.73047e-005
-3.74284e-005
-4.31581e-005
-4.26481e-005
-4.2136e-005
-4.17187e-005
-4.13448e-005
-4.09562e-005
-4.05808e-005
-4.02152e-005
-3.98473e-005
-3.94676e-005
-3.90875e-005
-3.87553e-005
-3.86169e-005
-3.87635e-005
-4.48873e-005
-4.43264e-005
-4.37657e-005
-4.33108e-005
-4.29046e-005
-4.24833e-005
-4.2078e-005
-4.16849e-005
-4.12908e-005
-4.08848e-005
-4.04793e-005
-4.01268e-005
-3.9987e-005
-4.01586e-005
-4.67278e-005
-4.61127e-005
-4.54999e-005
-4.50038e-005
-4.45615e-005
-4.41031e-005
-4.3663e-005
-4.32372e-005
-4.28114e-005
-4.23737e-005
-4.19377e-005
-4.15607e-005
-4.14173e-005
-4.16144e-005
-4.86899e-005
-4.80178e-005
-4.73489e-005
-4.68077e-005
-4.63251e-005
-4.58245e-005
-4.53441e-005
-4.48797e-005
-4.44157e-005
-4.39395e-005
-4.3466e-005
-4.30581e-005
-4.2907e-005
-4.31282e-005
-5.07712e-005
-5.00394e-005
-4.93112e-005
-4.87212e-005
-4.81939e-005
-4.76463e-005
-4.71202e-005
-4.66114e-005
-4.6103e-005
-4.55816e-005
-4.50636e-005
-4.46183e-005
-4.44549e-005
-4.46984e-005
-5.29543e-005
-5.21599e-005
-5.13693e-005
-5.07276e-005
-5.01526e-005
-4.95543e-005
-4.89787e-005
-4.84211e-005
-4.78637e-005
-4.72917e-005
-4.67237e-005
-4.62354e-005
-4.60555e-005
-4.63193e-005
-5.52173e-005
-5.43575e-005
-5.35017e-005
-5.28063e-005
-5.21818e-005
-5.15308e-005
-5.09035e-005
-5.0295e-005
-4.96858e-005
-4.90604e-005
-4.84387e-005
-4.79036e-005
-4.77043e-005
-4.79866e-005
-5.75392e-005
-5.66109e-005
-5.5687e-005
-5.49355e-005
-5.42596e-005
-5.35538e-005
-5.28727e-005
-5.22111e-005
-5.15479e-005
-5.08664e-005
-5.01886e-005
-4.96041e-005
-4.93839e-005
-4.96841e-005
-5.99003e-005
-5.89011e-005
-5.79063e-005
-5.70961e-005
-5.6366e-005
-5.56024e-005
-5.48646e-005
-5.4147e-005
-5.34271e-005
-5.26868e-005
-5.19498e-005
-5.13134e-005
-5.10706e-005
-5.13884e-005
-6.22799e-005
-6.12075e-005
-6.01397e-005
-5.92688e-005
-5.84824e-005
-5.76585e-005
-5.68613e-005
-5.60851e-005
-5.53057e-005
-5.45038e-005
-5.37048e-005
-5.30136e-005
-5.27462e-005
-5.3081e-005
-6.46607e-005
-6.35132e-005
-6.23702e-005
-6.1437e-005
-6.05927e-005
-5.97067e-005
-5.88483e-005
-5.80112e-005
-5.71698e-005
-5.63038e-005
-5.54407e-005
-5.46932e-005
-5.44011e-005
-5.47535e-005
-6.70293e-005
-6.58057e-005
-6.45864e-005
-6.35896e-005
-6.26857e-005
-6.17357e-005
-6.08139e-005
-5.99136e-005
-5.9008e-005
-5.80757e-005
-5.71467e-005
-5.63423e-005
-5.60262e-005
-5.63983e-005
-6.93674e-005
-6.80669e-005
-6.67708e-005
-6.571e-005
-6.47464e-005
-6.3732e-005
-6.27463e-005
-6.17825e-005
-6.0812e-005
-5.98126e-005
-5.88169e-005
-5.79548e-005
-5.76146e-005
-5.80073e-005
-7.16529e-005
-7.02753e-005
-6.89021e-005
-6.77774e-005
-6.67547e-005
-6.56768e-005
-6.46285e-005
-6.36029e-005
-6.25699e-005
-6.15062e-005
-6.04465e-005
-5.95295e-005
-5.91681e-005
-5.95839e-005
-7.3865e-005
-7.24103e-005
-7.09604e-005
-6.97725e-005
-6.86915e-005
-6.75518e-005
-6.64434e-005
-6.53595e-005
-6.4269e-005
-6.31475e-005
-6.20319e-005
-6.10689e-005
-6.06949e-005
-6.11399e-005
-7.59868e-005
-7.44558e-005
-7.29302e-005
-7.16808e-005
-7.05444e-005
-6.93466e-005
-6.81835e-005
-6.70482e-005
-6.59082e-005
-6.47385e-005
-6.35774e-005
-6.25788e-005
-6.22012e-005
-6.2681e-005
-7.80116e-005
-7.64057e-005
-7.48071e-005
-7.35e-005
-7.23132e-005
-7.10638e-005
-6.98534e-005
-6.86753e-005
-6.74953e-005
-6.62867e-005
-6.5089e-005
-6.40628e-005
-6.36875e-005
-6.42054e-005
-7.99424e-005
-7.82647e-005
-7.65973e-005
-7.52376e-005
-7.40065e-005
-7.27125e-005
-7.14621e-005
-7.02484e-005
-6.90354e-005
-6.77947e-005
-6.65668e-005
-6.55189e-005
-6.51515e-005
-6.57107e-005
-8.17842e-005
-8.00389e-005
-7.8308e-005
-7.69013e-005
-7.56318e-005
-7.42995e-005
-7.30153e-005
-7.17715e-005
-7.05304e-005
-6.9262e-005
-6.80085e-005
-6.69444e-005
-6.65898e-005
-6.71934e-005
-8.35377e-005
-8.17294e-005
-7.99398e-005
-7.84911e-005
-7.71885e-005
-7.58231e-005
-7.45099e-005
-7.32405e-005
-7.1976e-005
-7.06855e-005
-6.94125e-005
-6.83379e-005
-6.80005e-005
-6.86497e-005
-8.51998e-005
-8.3334e-005
-8.14905e-005
-8.00032e-005
-7.86699e-005
-7.72742e-005
-7.59354e-005
-7.46452e-005
-7.33634e-005
-7.20581e-005
-7.07735e-005
-6.96957e-005
-6.938e-005
-7.00748e-005
-8.67571e-005
-8.484e-005
-8.29481e-005
-8.1425e-005
-8.00629e-005
-7.86396e-005
-7.72788e-005
-7.59725e-005
-7.46793e-005
-7.33662e-005
-7.20775e-005
-7.1004e-005
-7.07155e-005
-7.14563e-005
-8.8189e-005
-8.62274e-005
-8.42927e-005
-8.27386e-005
-8.13524e-005
-7.99061e-005
-7.85276e-005
-7.72091e-005
-7.59084e-005
-7.45915e-005
-7.33034e-005
-7.2239e-005
-7.19808e-005
-7.27667e-005
-8.94776e-005
-8.74798e-005
-8.55104e-005
-8.39312e-005
-8.25252e-005
-8.10603e-005
-7.96675e-005
-7.83395e-005
-7.70337e-005
-7.57152e-005
-7.44292e-005
-7.33744e-005
-7.31448e-005
-7.39718e-005
-9.05993e-005
-8.8574e-005
-8.65776e-005
-8.49789e-005
-8.35578e-005
-8.20785e-005
-8.06752e-005
-7.93408e-005
-7.80319e-005
-7.67132e-005
-7.543e-005
-7.43848e-005
-7.41815e-005
-7.50441e-005
-9.15259e-005
-8.9482e-005
-8.74665e-005
-8.5854e-005
-8.44227e-005
-8.29341e-005
-8.15245e-005
-8.01868e-005
-7.88776e-005
-7.75612e-005
-7.62838e-005
-7.52504e-005
-7.50725e-005
-7.59655e-005
-9.22323e-005
-9.01805e-005
-8.81559e-005
-8.65363e-005
-8.50994e-005
-8.36062e-005
-8.21944e-005
-8.08577e-005
-7.95528e-005
-7.82442e-005
-7.69778e-005
-7.59601e-005
-7.58081e-005
-7.67272e-005
-9.26941e-005
-9.06456e-005
-8.86234e-005
-8.70057e-005
-8.557e-005
-8.40782e-005
-8.26696e-005
-8.1339e-005
-8.00438e-005
-7.87488e-005
-7.74996e-005
-7.65041e-005
-7.63812e-005
-7.73239e-005
-9.28929e-005
-9.08574e-005
-8.88467e-005
-8.72395e-005
-8.58142e-005
-8.43329e-005
-8.29356e-005
-8.16174e-005
-8.03374e-005
-7.90616e-005
-7.78361e-005
-7.68691e-005
-7.67784e-005
-7.77423e-005
-9.28263e-005
-9.08154e-005
-8.88272e-005
-8.72386e-005
-8.58303e-005
-8.43671e-005
-8.29883e-005
-8.16898e-005
-8.04316e-005
-7.91813e-005
-7.79851e-005
-7.70507e-005
-7.69917e-005
-7.79713e-005
-9.2494e-005
-9.0519e-005
-8.85632e-005
-8.70009e-005
-8.56176e-005
-8.41817e-005
-8.28309e-005
-8.15617e-005
-8.03347e-005
-7.9118e-005
-7.79571e-005
-7.70578e-005
-7.70271e-005
-7.80138e-005
-9.19066e-005
-8.99808e-005
-8.80702e-005
-8.65419e-005
-8.51891e-005
-8.37877e-005
-8.24728e-005
-8.12409e-005
-8.00533e-005
-7.88777e-005
-7.77581e-005
-7.68971e-005
-7.68924e-005
-7.78795e-005
-9.10671e-005
-8.92053e-005
-8.73575e-005
-8.58779e-005
-8.45662e-005
-8.32076e-005
-8.19345e-005
-8.07439e-005
-7.95987e-005
-7.84686e-005
-7.73964e-005
-7.65799e-005
-7.66029e-005
-7.75852e-005
-8.99827e-005
-8.81928e-005
-8.64146e-005
-8.49946e-005
-8.3739e-005
-8.24374e-005
-8.12174e-005
-8.00773e-005
-7.89829e-005
-7.79061e-005
-7.68887e-005
-7.61225e-005
-7.61735e-005
-7.71449e-005
-8.86954e-005
-8.69926e-005
-8.52993e-005
-8.39473e-005
-8.27512e-005
-8.15108e-005
-8.03491e-005
-7.92653e-005
-7.82277e-005
-7.72091e-005
-7.62496e-005
-7.55351e-005
-7.56114e-005
-7.65655e-005
-8.72254e-005
-8.56217e-005
-8.40258e-005
-8.27511e-005
-8.16233e-005
-8.0454e-005
-7.93597e-005
-7.83397e-005
-7.73638e-005
-7.64072e-005
-7.55087e-005
-7.48468e-005
-7.49424e-005
-7.58666e-005
-8.55979e-005
-8.41032e-005
-8.26117e-005
-8.14194e-005
-8.0366e-005
-7.92761e-005
-7.82585e-005
-7.73117e-005
-7.6407e-005
-7.55211e-005
-7.46901e-005
-7.40822e-005
-7.41902e-005
-7.50719e-005
-8.38503e-005
-8.24782e-005
-8.11072e-005
-8.0008e-005
-7.90343e-005
-7.80269e-005
-7.70877e-005
-7.6215e-005
-7.5382e-005
-7.45669e-005
-7.38036e-005
-7.32491e-005
-7.33647e-005
-7.41966e-005
-8.20094e-005
-8.07691e-005
-7.95286e-005
-7.85342e-005
-7.76522e-005
-7.67373e-005
-7.58816e-005
-7.5084e-005
-7.43209e-005
-7.35735e-005
-7.28734e-005
-7.23675e-005
-7.2485e-005
-7.32592e-005
-8.0119e-005
-7.90181e-005
-7.79136e-005
-7.7026e-005
-7.62375e-005
-7.54184e-005
-7.46497e-005
-7.39309e-005
-7.32418e-005
-7.25657e-005
-7.19304e-005
-7.14715e-005
-7.15834e-005
-7.22888e-005
-7.82349e-005
-7.72845e-005
-7.63274e-005
-7.55506e-005
-7.48543e-005
-7.4129e-005
-7.34451e-005
-7.28013e-005
-7.21807e-005
-7.157e-005
-7.09949e-005
-7.05795e-005
-7.06795e-005
-7.1306e-005
-7.64011e-005
-7.56064e-005
-7.48004e-005
-7.4135e-005
-7.35299e-005
-7.28973e-005
-7.22968e-005
-7.17265e-005
-7.11713e-005
-7.06199e-005
-7.00991e-005
-6.97226e-005
-6.98016e-005
-7.03371e-005
-7.46791e-005
-7.4039e-005
-7.3382e-005
-7.28273e-005
-7.23127e-005
-7.17672e-005
-7.12407e-005
-7.07351e-005
-7.02385e-005
-6.97429e-005
-6.92732e-005
-6.89286e-005
-6.89784e-005
-6.94152e-005
-7.3188e-005
-7.27025e-005
-7.21882e-005
-7.17324e-005
-7.12921e-005
-7.08184e-005
-7.03498e-005
-6.98894e-005
-6.94333e-005
-6.89786e-005
-6.85476e-005
-6.82284e-005
-6.82465e-005
-6.85816e-005
-7.20296e-005
-7.16813e-005
-7.12822e-005
-7.08954e-005
-7.0505e-005
-7.00845e-005
-6.96581e-005
-6.92288e-005
-6.87946e-005
-6.83591e-005
-6.79495e-005
-6.76419e-005
-6.76213e-005
-6.78638e-005
-7.13622e-005
-7.11284e-005
-7.08051e-005
-7.04335e-005
-7.00217e-005
-6.95792e-005
-6.91251e-005
-6.8668e-005
-6.8216e-005
-6.77809e-005
-6.73941e-005
-6.71268e-005
-6.7127e-005
-6.73416e-005
-3.04029e-007
-3.08148e-007
-3.098e-007
-3.1139e-007
-3.12754e-007
-3.14051e-007
-3.15368e-007
-3.16751e-007
-3.18212e-007
-3.19734e-007
-3.21253e-007
-3.22621e-007
-3.23558e-007
-3.24055e-007
-9.15471e-007
-9.20461e-007
-9.23623e-007
-9.26707e-007
-9.29866e-007
-9.33167e-007
-9.36674e-007
-9.40406e-007
-9.44317e-007
-9.48291e-007
-9.5205e-007
-9.55094e-007
-9.56555e-007
-9.56675e-007
-1.51862e-006
-1.51847e-006
-1.51967e-006
-1.5217e-006
-1.52456e-006
-1.5281e-006
-1.53228e-006
-1.53701e-006
-1.54217e-006
-1.5475e-006
-1.55256e-006
-1.55663e-006
-1.55832e-006
-1.55836e-006
-2.12528e-006
-2.12523e-006
-2.126e-006
-2.12788e-006
-2.13088e-006
-2.13489e-006
-2.13983e-006
-2.14559e-006
-2.15197e-006
-2.15865e-006
-2.16508e-006
-2.17026e-006
-2.17229e-006
-2.17222e-006
-2.72644e-006
-2.72624e-006
-2.72691e-006
-2.72892e-006
-2.73226e-006
-2.7368e-006
-2.74249e-006
-2.74922e-006
-2.75677e-006
-2.76475e-006
-2.77246e-006
-2.77862e-006
-2.78082e-006
-2.78042e-006
-3.31945e-006
-3.31904e-006
-3.31957e-006
-3.32168e-006
-3.32533e-006
-3.33036e-006
-3.33671e-006
-3.34429e-006
-3.35286e-006
-3.36194e-006
-3.37068e-006
-3.37755e-006
-3.37968e-006
-3.3788e-006
-3.90439e-006
-3.90366e-006
-3.90397e-006
-3.90595e-006
-3.90964e-006
-3.91487e-006
-3.92157e-006
-3.92962e-006
-3.93877e-006
-3.94848e-006
-3.95779e-006
-3.96497e-006
-3.96669e-006
-3.96513e-006
-4.48364e-006
-4.48248e-006
-4.48237e-006
-4.48407e-006
-4.4876e-006
-4.49271e-006
-4.49939e-006
-4.50753e-006
-4.51686e-006
-4.5268e-006
-4.53629e-006
-4.54341e-006
-4.54444e-006
-4.542e-006
-5.06183e-006
-5.06011e-006
-5.05945e-006
-5.06063e-006
-5.06364e-006
-5.06826e-006
-5.07447e-006
-5.08219e-006
-5.09117e-006
-5.1008e-006
-5.10996e-006
-5.11654e-006
-5.11648e-006
-5.11286e-006
-5.64533e-006
-5.64295e-006
-5.64158e-006
-5.64202e-006
-5.64425e-006
-5.648e-006
-5.65328e-006
-5.66004e-006
-5.66804e-006
-5.67666e-006
-5.68476e-006
-5.69013e-006
-5.68844e-006
-5.68332e-006
-6.24189e-006
-6.23877e-006
-6.23652e-006
-6.23602e-006
-6.23723e-006
-6.23983e-006
-6.24383e-006
-6.24917e-006
-6.25565e-006
-6.26267e-006
-6.2691e-006
-6.27272e-006
-6.2691e-006
-6.26237e-006
-6.85978e-006
-6.85593e-006
-6.85274e-006
-6.85112e-006
-6.85104e-006
-6.85218e-006
-6.85461e-006
-6.85829e-006
-6.86304e-006
-6.86828e-006
-6.87292e-006
-6.87475e-006
-6.86937e-006
-6.86132e-006
-7.5067e-006
-7.50215e-006
-7.49805e-006
-7.49533e-006
-7.49392e-006
-7.49353e-006
-7.49425e-006
-7.49611e-006
-7.49897e-006
-7.50234e-006
-7.50518e-006
-7.50536e-006
-7.49857e-006
-7.48955e-006
-8.18898e-006
-8.18379e-006
-8.17877e-006
-8.17496e-006
-8.17229e-006
-8.17042e-006
-8.16945e-006
-8.16945e-006
-8.17035e-006
-8.17169e-006
-8.17256e-006
-8.17102e-006
-8.16302e-006
-8.15332e-006
-8.91015e-006
-8.90447e-006
-8.89862e-006
-8.89377e-006
-8.88985e-006
-8.88653e-006
-8.88392e-006
-8.88209e-006
-8.88096e-006
-8.88018e-006
-8.87897e-006
-8.87562e-006
-8.86657e-006
-8.85644e-006
-9.6693e-006
-9.66329e-006
-9.65676e-006
-9.65103e-006
-9.64597e-006
-9.64127e-006
-9.63704e-006
-9.63336e-006
-9.63021e-006
-9.62729e-006
-9.62399e-006
-9.61891e-006
-9.60909e-006
-9.59879e-006
-1.04612e-005
-1.04549e-005
-1.04477e-005
-1.04411e-005
-1.04349e-005
-1.04289e-005
-1.04232e-005
-1.04178e-005
-1.04126e-005
-1.04076e-005
-1.04023e-005
-1.03956e-005
-1.03852e-005
-1.03749e-005
-1.12769e-005
-1.12704e-005
-1.12625e-005
-1.12549e-005
-1.12476e-005
-1.12402e-005
-1.12328e-005
-1.12255e-005
-1.12183e-005
-1.1211e-005
-1.12034e-005
-1.1195e-005
-1.11841e-005
-1.11737e-005
-1.21056e-005
-1.20988e-005
-1.20901e-005
-1.20815e-005
-1.20728e-005
-1.20638e-005
-1.20545e-005
-1.2045e-005
-1.20353e-005
-1.20253e-005
-1.20152e-005
-1.20045e-005
-1.19928e-005
-1.19823e-005
-1.29353e-005
-1.29282e-005
-1.29186e-005
-1.29088e-005
-1.28986e-005
-1.28876e-005
-1.28761e-005
-1.28641e-005
-1.28515e-005
-1.28386e-005
-1.28254e-005
-1.28122e-005
-1.27994e-005
-1.27883e-005
-1.37532e-005
-1.37458e-005
-1.37351e-005
-1.37239e-005
-1.3712e-005
-1.3699e-005
-1.3685e-005
-1.36702e-005
-1.36545e-005
-1.36382e-005
-1.36216e-005
-1.36056e-005
-1.35912e-005
-1.35789e-005
-1.45456e-005
-1.45377e-005
-1.45257e-005
-1.45131e-005
-1.44993e-005
-1.4484e-005
-1.44673e-005
-1.44494e-005
-1.44303e-005
-1.44102e-005
-1.43899e-005
-1.43704e-005
-1.43538e-005
-1.43399e-005
-1.52972e-005
-1.52886e-005
-1.52753e-005
-1.52609e-005
-1.5245e-005
-1.52273e-005
-1.52078e-005
-1.51866e-005
-1.51638e-005
-1.51397e-005
-1.51153e-005
-1.50921e-005
-1.50731e-005
-1.50573e-005
-1.59928e-005
-1.59831e-005
-1.5968e-005
-1.59518e-005
-1.59338e-005
-1.59137e-005
-1.58915e-005
-1.58672e-005
-1.5841e-005
-1.58134e-005
-1.57853e-005
-1.57589e-005
-1.57379e-005
-1.5721e-005
-1.66205e-005
-1.66092e-005
-1.65919e-005
-1.65737e-005
-1.65537e-005
-1.65313e-005
-1.65068e-005
-1.64801e-005
-1.64515e-005
-1.64215e-005
-1.63913e-005
-1.63634e-005
-1.63422e-005
-1.63259e-005
-1.71754e-005
-1.71617e-005
-1.71418e-005
-1.71214e-005
-1.70994e-005
-1.70751e-005
-1.70489e-005
-1.70208e-005
-1.69911e-005
-1.69604e-005
-1.69302e-005
-1.69032e-005
-1.68841e-005
-1.68709e-005
-1.76629e-005
-1.76461e-005
-1.76231e-005
-1.76002e-005
-1.75761e-005
-1.755e-005
-1.75225e-005
-1.74937e-005
-1.7464e-005
-1.74341e-005
-1.74056e-005
-1.73812e-005
-1.7366e-005
-1.73573e-005
-1.80994e-005
-1.80789e-005
-1.80523e-005
-1.80264e-005
-1.79998e-005
-1.79716e-005
-1.79424e-005
-1.79126e-005
-1.78827e-005
-1.78534e-005
-1.78265e-005
-1.78048e-005
-1.77928e-005
-1.77881e-005
-1.85069e-005
-1.84825e-005
-1.84518e-005
-1.84225e-005
-1.83927e-005
-1.83612e-005
-1.83291e-005
-1.82969e-005
-1.82649e-005
-1.82343e-005
-1.82066e-005
-1.81848e-005
-1.81733e-005
-1.81695e-005
-1.89055e-005
-1.88772e-005
-1.8842e-005
-1.88087e-005
-1.87747e-005
-1.87388e-005
-1.87021e-005
-1.86652e-005
-1.86288e-005
-1.85936e-005
-1.85617e-005
-1.8536e-005
-1.85206e-005
-1.85138e-005
-1.9308e-005
-1.92755e-005
-1.92354e-005
-1.91973e-005
-1.91582e-005
-1.91167e-005
-1.90741e-005
-1.9031e-005
-1.8988e-005
-1.89461e-005
-1.89073e-005
-1.88746e-005
-1.88524e-005
-1.88398e-005
-1.97195e-005
-1.96822e-005
-1.96365e-005
-1.95931e-005
-1.95484e-005
-1.95008e-005
-1.94518e-005
-1.94021e-005
-1.93523e-005
-1.93035e-005
-1.92578e-005
-1.92184e-005
-1.91897e-005
-1.91714e-005
-2.01457e-005
-2.01027e-005
-2.00507e-005
-2.00017e-005
-1.99513e-005
-1.98979e-005
-1.98431e-005
-1.9788e-005
-1.97331e-005
-1.96796e-005
-1.96297e-005
-1.95868e-005
-1.95548e-005
-1.95338e-005
-2.05988e-005
-2.05492e-005
-2.04904e-005
-2.04358e-005
-2.03804e-005
-2.0322e-005
-2.0263e-005
-2.02043e-005
-2.01468e-005
-2.00917e-005
-2.00412e-005
-1.99985e-005
-1.99673e-005
-1.99472e-005
-2.10967e-005
-2.104e-005
-2.0974e-005
-2.09141e-005
-2.08541e-005
-2.07917e-005
-2.07296e-005
-2.06689e-005
-2.06106e-005
-2.05557e-005
-2.05066e-005
-2.04666e-005
-2.04386e-005
-2.04216e-005
-2.16549e-005
-2.15906e-005
-2.15171e-005
-2.14517e-005
-2.13872e-005
-2.1321e-005
-2.12561e-005
-2.11936e-005
-2.11347e-005
-2.10804e-005
-2.1033e-005
-2.09959e-005
-2.09721e-005
-2.09594e-005
-2.22795e-005
-2.22068e-005
-2.21251e-005
-2.20537e-005
-2.19841e-005
-2.19133e-005
-2.18449e-005
-2.17801e-005
-2.172e-005
-2.16657e-005
-2.16197e-005
-2.15858e-005
-2.1567e-005
-2.15602e-005
-2.29688e-005
-2.28866e-005
-2.27954e-005
-2.27169e-005
-2.26412e-005
-2.25649e-005
-2.24919e-005
-2.24239e-005
-2.23619e-005
-2.23072e-005
-2.22628e-005
-2.2233e-005
-2.22215e-005
-2.22236e-005
-2.37202e-005
-2.36269e-005
-2.35248e-005
-2.34379e-005
-2.33551e-005
-2.32723e-005
-2.31941e-005
-2.31223e-005
-2.30583e-005
-2.30036e-005
-2.29615e-005
-2.29376e-005
-2.29359e-005
-2.29501e-005
-2.45344e-005
-2.44286e-005
-2.43141e-005
-2.4218e-005
-2.41274e-005
-2.40375e-005
-2.39539e-005
-2.38785e-005
-2.38128e-005
-2.37587e-005
-2.372e-005
-2.37031e-005
-2.3713e-005
-2.3741e-005
-2.54151e-005
-2.52954e-005
-2.51673e-005
-2.50611e-005
-2.49619e-005
-2.48645e-005
-2.4775e-005
-2.46958e-005
-2.46285e-005
-2.4575e-005
-2.45397e-005
-2.45298e-005
-2.45516e-005
-2.45932e-005
-2.6364e-005
-2.62288e-005
-2.60855e-005
-2.59681e-005
-2.58592e-005
-2.57528e-005
-2.56561e-005
-2.55716e-005
-2.55011e-005
-2.54468e-005
-2.54135e-005
-2.54098e-005
-2.54427e-005
-2.54974e-005
-2.73804e-005
-2.72279e-005
-2.70673e-005
-2.69367e-005
-2.68159e-005
-2.66983e-005
-2.65918e-005
-2.64993e-005
-2.64229e-005
-2.63651e-005
-2.63314e-005
-2.63317e-005
-2.63745e-005
-2.64414e-005
-2.84618e-005
-2.829e-005
-2.811e-005
-2.79638e-005
-2.78287e-005
-2.76969e-005
-2.75777e-005
-2.74741e-005
-2.73886e-005
-2.73238e-005
-2.72865e-005
-2.72879e-005
-2.73383e-005
-2.7416e-005
-2.96038e-005
-2.94107e-005
-2.92089e-005
-2.9045e-005
-2.88931e-005
-2.87445e-005
-2.86096e-005
-2.84919e-005
-2.83941e-005
-2.83194e-005
-2.82752e-005
-2.82749e-005
-2.83307e-005
-2.84177e-005
-3.0799e-005
-3.05823e-005
-3.03564e-005
-3.01728e-005
-3.00019e-005
-2.98339e-005
-2.96809e-005
-2.95466e-005
-2.94343e-005
-2.93474e-005
-2.92949e-005
-2.9292e-005
-2.93531e-005
-2.94497e-005
-3.2039e-005
-3.17963e-005
-3.15436e-005
-3.13382e-005
-3.11464e-005
-3.09572e-005
-3.07842e-005
-3.06319e-005
-3.05041e-005
-3.04049e-005
-3.03445e-005
-3.03403e-005
-3.0409e-005
-3.05177e-005
-3.33185e-005
-3.30471e-005
-3.2765e-005
-3.25357e-005
-3.23212e-005
-3.21095e-005
-3.19157e-005
-3.1745e-005
-3.16018e-005
-3.14909e-005
-3.14239e-005
-3.14205e-005
-3.14992e-005
-3.16224e-005
-3.46346e-005
-3.4332e-005
-3.40183e-005
-3.37634e-005
-3.35249e-005
-3.32893e-005
-3.3074e-005
-3.28849e-005
-3.27267e-005
-3.26049e-005
-3.25324e-005
-3.25312e-005
-3.26219e-005
-3.27614e-005
-3.59844e-005
-3.56479e-005
-3.53001e-005
-3.50184e-005
-3.47549e-005
-3.44948e-005
-3.42576e-005
-3.40499e-005