/*--------------------------------*- C++ -*----------------------------------*\
| =========                 |                                                 |
| \\      /  F ield         | OpenFOAM: The Open Source CFD Toolbox           |
|  \\    /   O peration     | Version:  5.x                                   |
|   \\  /    A nd           | Web:      www.OpenFOAM.org                      |
|    \\/     M anipulation  |                                                 |
\*---------------------------------------------------------------------------*/
/*   Windows 32 and 64 bit porting by blueCAPE: http://www.bluecape.com.pt   *\
|  Based on Windows porting (2.0.x v4) by Symscape: http://www.symscape.com   |
\*---------------------------------------------------------------------------*/
FoamFile
{
    version     2.0;
    format      ascii;
    class       volScalarField;
    location    "0.75";
    object      p;
}
// * * * * * * * * * * * * * * * * * * * * * * * * * * * * * * * * * * * * * //

dimensions      [0 2 -2 0 0 0 0];

internalField   nonuniform List<scalar> 
141075
(
-2.15472
-2.25927
-2.44036
-2.58262
-2.69772
-2.79569
-2.88104
-2.95338
-3.00743
-3.04154
-3.0564
-3.05357
-3.02486
-2.96443
-5.34761
-5.46206
-5.68992
-5.8562
-5.9605
-6.01351
-6.01898
-5.97724
-5.89218
-5.76976
-5.62116
-5.46027
-5.28852
-5.14497
-7.95429
-8.01921
-8.14471
-8.22902
-8.25164
-8.21555
-8.11971
-7.96224
-7.74739
-7.4861
-7.19862
-6.91161
-6.6532
-6.4955
-10.7705
-10.8122
-10.8541
-10.8669
-10.8096
-10.687
-10.4995
-10.2464
-9.93238
-9.56869
-9.17935
-8.80337
-8.49769
-8.34961
-13.9531
-13.9879
-13.9986
-14.0021
-13.9414
-13.8063
-13.5921
-13.2979
-12.9312
-12.5078
-12.0591
-11.6336
-11.3021
-11.1483
-17.3494
-17.4038
-17.4336
-17.4439
-17.3876
-17.2586
-17.0472
-16.7474
-16.3647
-15.9165
-15.4398
-14.9898
-14.6384
-14.4524
-20.6619
-20.757
-20.8653
-20.9137
-20.8632
-20.731
-20.5109
-20.1973
-19.7954
-19.3238
-18.8218
-18.3472
-17.964
-17.7213
-23.6882
-23.7831
-23.9205
-24.0171
-24.0191
-23.9221
-23.7198
-23.4092
-22.9995
-22.5129
-21.9924
-21.4982
-21.0808
-20.7696
-26.5725
-26.6699
-26.8118
-26.9081
-26.9112
-26.8186
-26.6197
-26.3077
-25.891
-25.3927
-24.8584
-24.3487
-23.9014
-23.5335
-29.3266
-29.4291
-29.5727
-29.6551
-29.6312
-29.512
-29.2878
-28.9518
-28.5136
-27.9962
-27.445
-26.9205
-26.4569
-26.0671
-31.9198
-31.9966
-32.0939
-32.1576
-32.1274
-31.9971
-31.7561
-31.3985
-30.935
-30.3908
-29.8149
-29.2746
-28.8125
-28.4454
-34.4841
-34.5422
-34.5928
-34.6219
-34.5675
-34.4196
-34.1637
-33.7919
-33.3146
-32.7571
-32.1701
-31.6253
-31.1782
-30.8541
-37.0607
-37.1141
-37.1504
-37.1618
-37.0893
-36.9292
-36.6669
-36.295
-35.8225
-35.2721
-34.6937
-34.1609
-33.7354
-33.4435
-39.653
-39.7017
-39.7381
-39.7566
-39.6981
-39.5523
-39.305
-38.9489
-38.4918
-37.9544
-37.3856
-36.8583
-36.4285
-36.1203
-42.2518
-42.3084
-42.3677
-42.4001
-42.3573
-42.2321
-42.0099
-41.6825
-41.2545
-40.7415
-40.1867
-39.6572
-39.1901
-38.8042
-44.7021
-44.7624
-44.8394
-44.8825
-44.854
-44.75
-44.5558
-44.2611
-43.8667
-43.3819
-42.8438
-42.3131
-41.7977
-41.3056
-46.8627
-46.9104
-46.9715
-47.006
-46.9816
-46.8894
-46.7132
-46.4413
-46.0716
-45.6084
-45.0836
-44.55
-43.9868
-43.3955
-48.6878
-48.7162
-48.745
-48.7549
-48.717
-48.6219
-48.4521
-48.1954
-47.8474
-47.4067
-46.8989
-46.368
-45.7704
-45.1035
-50.216
-50.2174
-50.2047
-50.1921
-50.1494
-50.0584
-49.9001
-49.6626
-49.3386
-48.9221
-48.4336
-47.9109
-47.2927
-46.572
-51.6
-51.5928
-51.5751
-51.558
-51.519
-51.4382
-51.2963
-51.0809
-50.7813
-50.3869
-49.9136
-49.3941
-48.7517
-47.9748
-52.8724
-52.8797
-52.911
-52.927
-52.9166
-52.8646
-52.7524
-52.5681
-52.2981
-51.9271
-51.4668
-50.9449
-50.2653
-49.409
-53.9268
-53.9477
-54.0358
-54.0993
-54.1381
-54.1325
-54.0631
-53.9171
-53.6792
-53.3303
-52.8795
-52.351
-51.6262
-50.6789
-54.6916
-54.7274
-54.8631
-54.9523
-55.0115
-55.027
-54.9781
-54.8515
-54.6295
-54.2899
-53.8396
-53.2992
-52.5335
-51.5148
-55.1018
-55.143
-55.3
-55.3925
-55.4464
-55.4541
-55.397
-55.2629
-55.0345
-54.688
-54.2279
-53.6739
-52.8874
-51.8446
-55.1688
-55.1948
-55.33
-55.406
-55.446
-55.4353
-55.3558
-55.1975
-54.9452
-54.576
-54.0958
-53.5286
-52.7506
-51.7456
-55.0242
-55.0376
-55.1468
-55.1964
-55.2091
-55.1675
-55.0535
-54.8586
-54.5698
-54.1668
-53.6606
-53.0851
-52.3442
-51.4291
-54.7789
-54.7896
-54.8929
-54.9312
-54.926
-54.8609
-54.7179
-54.4908
-54.1694
-53.7376
-53.2139
-52.6443
-51.9643
-51.1652
-54.5028
-54.5182
-54.6323
-54.674
-54.6653
-54.5889
-54.4273
-54.1765
-53.8297
-53.3764
-52.844
-52.2921
-51.6874
-51.0114
-54.2086
-54.2373
-54.3768
-54.4239
-54.4052
-54.3089
-54.1186
-53.8323
-53.4476
-52.9614
-52.4117
-51.8739
-51.3474
-50.8005
-53.8401
-53.8757
-54.0269
-54.0715
-54.0369
-53.9127
-53.6835
-53.35
-52.9155
-52.3854
-51.8106
-51.2848
-50.8466
-50.4505
-53.3643
-53.3953
-53.5292
-53.5529
-53.4909
-53.3315
-53.0608
-52.6814
-52.2027
-51.6386
-51.0532
-50.5598
-50.2443
-50.0408
-52.7605
-52.7758
-52.8634
-52.8465
-52.7427
-52.5389
-52.2227
-51.7996
-51.2853
-50.7028
-50.1293
-49.6983
-49.5491
-49.5859
-52.0417
-52.03
-52.0464
-51.9748
-51.8219
-51.568
-51.2021
-50.7335
-50.1845
-49.5882
-49.0358
-48.6821
-48.7247
-49.0304
-51.3171
-51.2848
-51.2424
-51.1206
-50.919
-50.6164
-50.2022
-49.6896
-49.1067
-48.4973
-47.9676
-47.694
-47.9304
-48.4983
-50.6954
-50.663
-50.6076
-50.4675
-50.2413
-49.9113
-49.469
-48.9316
-48.3324
-47.7257
-47.2325
-47.0485
-47.4736
-48.2722
-50.1765
-50.1608
-50.1354
-50.0165
-49.8032
-49.4795
-49.0402
-48.5072
-47.9202
-47.3435
-46.9116
-46.836
-47.4507
-48.4538
-49.652
-49.6588
-49.6797
-49.5988
-49.4167
-49.1186
-48.7015
-48.1913
-47.6344
-47.1054
-46.7513
-46.7977
-47.608
-48.8123
-49.0143
-49.0349
-49.0831
-49.0258
-48.8645
-48.5868
-48.1908
-47.7056
-47.1831
-46.707
-46.4363
-46.6098
-47.6222
-49.0394
-48.2844
-48.3054
-48.3509
-48.2957
-48.1374
-47.8654
-47.4799
-47.0137
-46.5233
-46.1
-45.9133
-46.2136
-47.4263
-49.0581
-47.5722
-47.5835
-47.6075
-47.548
-47.3932
-47.1283
-46.756
-46.3127
-45.8586
-45.4921
-45.3905
-45.8126
-47.2076
-49.0262
-46.9622
-46.9598
-46.9549
-46.89
-46.748
-46.5052
-46.164
-45.7616
-45.3604
-45.063
-45.0521
-45.5901
-47.1378
-49.0929
-46.4663
-46.4649
-46.4559
-46.3908
-46.2577
-46.0374
-45.7315
-45.3771
-45.0367
-44.8143
-44.895
-45.5397
-47.2074
-49.2444
-46.0004
-46.0073
-46.02
-45.9769
-45.8683
-45.6781
-45.4094
-45.1014
-44.8178
-44.6647
-44.8278
-45.5639
-47.3166
-49.3803
-45.5026
-45.5102
-45.5382
-45.5241
-45.458
-45.3137
-45.094
-44.8392
-44.6148
-44.5287
-44.7672
-45.5807
-47.3866
-49.4248
-44.9682
-44.982
-45.0234
-45.021
-44.9751
-44.8631
-44.6854
-44.4811
-44.3149
-44.2948
-44.6056
-45.4893
-47.3275
-49.3032
-44.3269
-44.3451
-44.3928
-44.3913
-44.3473
-44.2475
-44.0936
-43.9244
-43.8043
-43.8403
-44.2151
-45.1604
-47.0158
-48.9083
-43.5395
-43.5396
-43.558
-43.5484
-43.5103
-43.4215
-43.2845
-43.1391
-43.0502
-43.1253
-43.5458
-44.5333
-46.3831
-48.1723
-42.7082
-42.6851
-42.6573
-42.6213
-42.5747
-42.4865
-42.3566
-42.223
-42.1494
-42.2432
-42.685
-43.6864
-45.4966
-47.1508
-41.9247
-41.8925
-41.8406
-41.7783
-41.7105
-41.61
-41.4746
-41.3399
-41.2671
-41.3616
-41.8016
-42.7876
-44.5194
-46.0004
-41.2209
-41.1913
-41.1467
-41.0808
-41.0067
-40.9001
-40.7584
-40.6166
-40.534
-40.6133
-41.0287
-41.9693
-43.5831
-44.8549
-40.6137
-40.5959
-40.5834
-40.5322
-40.4657
-40.3611
-40.2152
-40.0624
-39.9595
-40.0059
-40.3705
-41.2313
-42.6853
-43.7167
-40.0769
-40.0737
-40.0985
-40.0608
-39.9973
-39.889
-39.7323
-39.5596
-39.4247
-39.4213
-39.711
-40.4606
-41.7187
-42.489
-39.5772
-39.5855
-39.6382
-39.6012
-39.5255
-39.3989
-39.2178
-39.0128
-38.8329
-38.7641
-38.9588
-39.5712
-40.6058
-41.1048
-39.1208
-39.1351
-39.2051
-39.1633
-39.0688
-38.9148
-38.6986
-38.4489
-38.2099
-38.0588
-38.1372
-38.5868
-39.3733
-39.5922
-38.7533
-38.768
-38.8447
-38.7963
-38.6868
-38.507
-38.2536
-37.9526
-37.6432
-37.394
-37.3358
-37.5991
-38.1159
-38.043
-38.5535
-38.5745
-38.6648
-38.6085
-38.4788
-38.2695
-37.9748
-37.6176
-37.2309
-36.8744
-36.6681
-36.7319
-36.9657
-36.5886
-38.5774
-38.6113
-38.7331
-38.6803
-38.5361
-38.3002
-37.9661
-37.5539
-37.0903
-36.6257
-36.2683
-36.1274
-36.0694
-35.3729
-38.8777
-38.9204
-39.0733
-39.0338
-38.8911
-38.644
-38.2843
-37.8288
-37.2981
-36.7331
-36.2302
-35.8879
-35.5361
-34.5085
-39.5139
-39.5623
-39.733
-39.6956
-39.5502
-39.2957
-38.92
-38.4344
-37.8523
-37.2039
-36.5731
-36.0463
-35.4137
-34.0578
-40.4785
-40.5341
-40.7171
-40.6717
-40.5096
-40.2396
-39.8472
-39.3384
-38.7186
-38.0059
-37.2699
-36.5819
-35.6885
-34.0155
-41.7188
-41.7678
-41.9427
-41.8932
-41.7274
-41.4526
-41.0527
-40.5295
-39.8812
-39.1139
-38.283
-37.4436
-36.2982
-34.3142
-43.2836
-43.3139
-43.4557
-43.3963
-43.2341
-42.9628
-42.5621
-42.0287
-41.3532
-40.5303
-39.6016
-38.6075
-37.2074
-34.9115
-45.248
-45.2689
-45.3836
-45.3063
-45.1341
-44.8566
-44.4473
-43.896
-43.1842
-42.2953
-41.2582
-40.0992
-38.4357
-35.821
-47.5477
-47.5719
-47.6829
-47.5988
-47.4171
-47.1309
-46.7089
-46.1338
-45.3787
-44.4154
-43.2606
-41.928
-39.991
-37.0469
-50.0116
-50.0346
-50.1429
-50.066
-49.8962
-49.6188
-49.1977
-48.6093
-47.8188
-46.7882
-45.5229
-44.0243
-41.8182
-38.5445
-52.4986
-52.5229
-52.6299
-52.5568
-52.395
-52.1277
-51.713
-51.1195
-50.3046
-49.2201
-47.8611
-46.2153
-43.7586
-40.1717
-54.8646
-54.8943
-55.0089
-54.9421
-54.7819
-54.5159
-54.0989
-53.4926
-52.647
-51.5049
-50.052
-48.2644
-45.5738
-41.7042
-57.0113
-57.0364
-57.1479
-57.0935
-56.9474
-56.6879
-56.2673
-55.6419
-54.7562
-53.5467
-51.9928
-50.0645
-47.1628
-43.059
-58.9691
-58.9935
-59.1059
-59.0645
-58.9313
-58.678
-58.2538
-57.6099
-56.6867
-55.4159
-53.7729
-51.7251
-48.654
-44.3766
-60.787
-60.8233
-60.9593
-60.942
-60.824
-60.5784
-60.1521
-59.4933
-58.5404
-57.2225
-55.5126
-53.377
-50.1832
-45.788
-62.5217
-62.5759
-62.7522
-62.7743
-62.6864
-62.4622
-62.046
-61.3824
-60.4086
-59.053
-57.2882
-55.0822
-51.7928
-47.3146
-64.2638
-64.3473
-64.5849
-64.6589
-64.6096
-64.4162
-64.0213
-63.3646
-62.38
-60.9946
-59.1806
-56.9089
-53.5319
-48.9815
-66.0261
-66.1431
-66.4543
-66.5928
-66.5907
-66.4334
-66.0631
-65.4165
-64.4259
-63.018
-61.1652
-58.8412
-55.3936
-50.786
-67.775
-67.9127
-68.2738
-68.4651
-68.5049
-68.3747
-68.0175
-67.3685
-66.363
-64.9312
-63.0482
-60.6927
-57.2105
-52.5848
-69.5094
-69.6595
-70.0397
-70.2515
-70.2997
-70.1652
-69.792
-69.1149
-68.0735
-66.6034
-64.684
-62.3027
-58.8141
-54.2138
-71.2409
-71.3945
-71.7723
-71.9872
-72.0251
-71.8674
-71.4587
-70.7355
-69.6433
-68.1248
-66.166
-63.7657
-60.2973
-55.7621
-73.085
-73.2269
-73.5734
-73.7766
-73.8036
-73.6261
-73.1873
-72.4238
-71.2873
-69.7299
-67.7484
-65.3557
-61.9471
-57.5138
-75.257
-75.4064
-75.7475
-75.9327
-75.9265
-75.7121
-75.2318
-74.4215
-73.2378
-71.6431
-69.6455
-67.2735
-63.9438
-59.6276
-77.7828
-77.9515
-78.3194
-78.5106
-78.4853
-78.2374
-77.7119
-76.8458
-75.6028
-73.9563
-71.9269
-69.5597
-66.2923
-62.0776
-80.5629
-80.7391
-81.1186
-81.3171
-81.2839
-81.0073
-80.4362
-79.5105
-78.2041
-76.5038
-74.4433
-72.0835
-68.8785
-64.7629
-83.5176
-83.6969
-84.0642
-84.2363
-84.1581
-83.8207
-83.1769
-82.1717
-80.792
-79.0397
-76.9609
-74.6273
-71.5064
-67.5137
-86.5355
-86.7074
-87.0316
-87.1501
-87.0009
-86.5818
-85.8504
-84.7573
-83.3021
-81.4993
-79.4043
-77.0972
-74.0659
-70.2169
-89.5642
-89.7035
-89.9392
-89.9868
-89.7697
-89.2768
-88.468
-87.2973
-85.7733
-83.9218
-81.8088
-79.5264
-76.5944
-72.9173
-92.7006
-92.8094
-92.955
-92.9215
-92.6252
-92.0532
-91.1657
-89.9181
-88.3267
-86.4291
-84.3024
-82.0516
-79.232
-75.7492
-95.9936
-96.0873
-96.1788
-96.0838
-95.7183
-95.0771
-94.1213
-92.8093
-91.1649
-89.2359
-87.1083
-84.8965
-82.1923
-78.9059
-99.4447
-99.5315
-99.6052
-99.4854
-99.0889
-98.4127
-97.4195
-96.0701
-94.3945
-92.4498
-90.3329
-88.1695
-85.589
-82.5044
-103.091
-103.186
-103.287
-103.179
-102.781
-102.094
-101.085
-99.7183
-98.029
-96.0842
-93.9904
-91.882
-89.4198
-86.5217
-106.878
-106.982
-107.124
-107.053
-106.687
-106.021
-105.026
-103.671
-101.999
-100.087
-98.0438
-96.0062
-93.6614
-90.9333
-110.722
-110.814
-110.95
-110.893
-110.562
-109.937
-108.986
-107.676
-106.056
-104.204
-102.232
-100.283
-98.0737
-95.5383
-114.548
-114.624
-114.703
-114.59
-114.226
-113.602
-112.68
-111.421
-109.865
-108.088
-106.201
-104.348
-102.289
-99.9793
-118.134
-118.181
-118.175
-117.984
-117.555
-116.896
-115.97
-114.735
-113.23
-111.529
-109.741
-108.003
-106.12
-104.072
-121.363
-121.352
-121.238
-121.002
-120.564
-119.911
-119.005
-117.807
-116.359
-114.737
-113.049
-111.434
-109.744
-107.986
-124.534
-124.475
-124.278
-124.026
-123.618
-123.021
-122.196
-121.103
-119.777
-118.285
-116.735
-115.271
-113.8
-112.338
-127.829
-127.786
-127.623
-127.424
-127.086
-126.583
-125.88
-124.938
-123.786
-122.49
-121.153
-119.912
-118.718
-117.583
-130.868
-130.842
-130.732
-130.632
-130.438
-130.104
-129.59
-128.861
-127.949
-126.916
-125.858
-124.9
-124.045
-123.29
-133.25
-133.237
-133.143
-133.086
-132.971
-132.766
-132.434
-131.941
-131.308
-130.574
-129.819
-129.162
-128.637
-128.239
-134.745
-134.71
-134.568
-134.499
-134.401
-134.262
-134.055
-133.745
-133.337
-132.865
-132.387
-131.983
-131.682
-131.497
-135.722
-135.667
-135.494
-135.428
-135.362
-135.277
-135.152
-134.965
-134.721
-134.437
-134.143
-133.872
-133.595
-133.39
-136.554
-136.53
-136.392
-136.368
-136.346
-136.287
-136.171
-135.979
-135.721
-135.408
-135.04
-134.614
-134.053
-133.569
-2.11912
-2.21522
-2.37615
-2.51545
-2.63705
-2.74676
-2.84345
-2.92338
-2.98513
-3.02186
-3.02757
-2.99514
-2.91374
-2.8185
-5.57388
-5.70367
-5.9225
-6.09684
-6.22538
-6.31086
-6.34816
-6.33167
-6.25986
-6.12933
-5.93766
-5.6782
-5.33871
-5.03306
-8.45243
-8.547
-8.68382
-8.7866
-8.83639
-8.8357
-8.77838
-8.65641
-8.4665
-8.20529
-7.87169
-7.46621
-6.99052
-6.5945
-11.4214
-11.4911
-11.5477
-11.5915
-11.5803
-11.5077
-11.3678
-11.1561
-10.8726
-10.5153
-10.0866
-9.59412
-9.05297
-8.62503
-14.6868
-14.7584
-14.7867
-14.815
-14.7945
-14.7109
-14.5518
-14.3097
-13.9857
-13.5805
-13.1011
-12.5611
-11.9826
-11.5257
-18.0842
-18.1863
-18.2546
-18.3056
-18.2956
-18.2198
-18.0662
-17.8245
-17.4935
-17.0725
-16.57
-16.0033
-15.3944
-14.8941
-21.347
-21.4798
-21.6108
-21.7135
-21.743
-21.6933
-21.5548
-21.318
-20.9821
-20.5468
-20.0218
-19.4263
-18.779
-18.2205
-24.3533
-24.5033
-24.6805
-24.8252
-24.8921
-24.8751
-24.761
-24.5383
-24.2066
-23.766
-23.2274
-22.6113
-21.9302
-21.3112
-27.1775
-27.3375
-27.5367
-27.6952
-27.7691
-27.758
-27.6494
-27.4305
-27.099
-26.654
-26.1068
-25.4778
-24.7733
-24.1096
-29.8438
-29.9965
-30.183
-30.3362
-30.4067
-30.3898
-30.2743
-30.0479
-29.7089
-29.2571
-28.7037
-28.0687
-27.3557
-26.6775
-32.3758
-32.5087
-32.6556
-32.7851
-32.8415
-32.8154
-32.6929
-32.4609
-32.1169
-31.6613
-31.1058
-30.473
-29.7693
-29.1095
-34.8585
-34.9726
-35.0784
-35.1783
-35.2144
-35.1758
-35.0486
-34.8196
-34.4848
-34.0431
-33.5044
-32.8901
-32.2089
-31.5819
-37.3374
-37.44
-37.524
-37.6096
-37.6388
-37.6002
-37.4821
-37.2721
-36.9649
-36.5559
-36.0509
-35.4679
-34.8125
-34.2079
-39.8291
-39.9305
-40.0216
-40.1136
-40.1535
-40.132
-40.0374
-39.8563
-39.581
-39.2032
-38.7249
-38.1603
-37.5058
-36.8852
-42.2979
-42.4047
-42.5188
-42.6283
-42.6883
-42.6919
-42.6281
-42.4824
-42.2435
-41.8979
-41.4417
-40.8827
-40.2027
-39.5236
-44.6088
-44.7141
-44.8408
-44.9611
-45.0376
-45.064
-45.0294
-44.9175
-44.7129
-44.3973
-43.9617
-43.4083
-42.7007
-41.9513
-46.6377
-46.727
-46.8367
-46.9442
-47.0176
-47.0492
-47.0273
-46.9343
-46.7515
-46.4576
-46.04
-45.4964
-44.7735
-43.9729
-48.3427
-48.4041
-48.4709
-48.5465
-48.6012
-48.6233
-48.6021
-48.5197
-48.3557
-48.0864
-47.6952
-47.1755
-46.4596
-45.6346
-49.7724
-49.8044
-49.831
-49.8767
-49.9146
-49.9307
-49.9142
-49.8472
-49.7076
-49.4695
-49.1128
-48.6268
-47.9302
-47.0936
-51.0539
-51.072
-51.0925
-51.1319
-51.1707
-51.1956
-51.1963
-51.1546
-51.0461
-50.8412
-50.5158
-50.0551
-49.3644
-48.5015
-52.2307
-52.2564
-52.3159
-52.3825
-52.449
-52.5049
-52.541
-52.5381
-52.4685
-52.2979
-51.998
-51.5486
-50.8391
-49.9178
-53.2171
-53.2609
-53.3848
-53.4963
-53.6024
-53.6986
-53.7757
-53.8132
-53.7804
-53.6392
-53.3564
-52.9065
-52.1603
-51.1604
-53.9166
-53.9729
-54.1481
-54.2936
-54.4276
-54.5494
-54.6511
-54.712
-54.7002
-54.5752
-54.2998
-53.8428
-53.0601
-51.9918
-54.2773
-54.3308
-54.5186
-54.6699
-54.8086
-54.9335
-55.0381
-55.1036
-55.0977
-54.9795
-54.7088
-54.2506
-53.4537
-52.3558
-54.3315
-54.371
-54.5418
-54.6754
-54.7971
-54.9064
-54.9972
-55.0533
-55.0433
-54.9264
-54.6617
-54.2135
-53.4323
-52.3525
-54.1947
-54.2209
-54.3717
-54.4857
-54.588
-54.6779
-54.751
-54.7941
-54.7775
-54.6611
-54.405
-53.9753
-53.231
-52.2022
-53.9777
-53.9997
-54.1485
-54.2597
-54.3585
-54.444
-54.5134
-54.5561
-54.5442
-54.4385
-54.2008
-53.8005
-53.1073
-52.1424
-53.7418
-53.772
-53.9428
-54.0687
-54.1773
-54.2709
-54.3475
-54.3986
-54.3985
-54.3097
-54.0969
-53.7335
-53.1008
-52.2039
-53.4835
-53.528
-53.7308
-53.8769
-53.9968
-54.0959
-54.1739
-54.2247
-54.226
-54.1437
-53.9479
-53.618
-53.0511
-52.2319
-53.1518
-53.2056
-53.4283
-53.5856
-53.7081
-53.8032
-53.8719
-53.9114
-53.9035
-53.8198
-53.6376
-53.3466
-52.8667
-52.1563
-52.7068
-52.7583
-52.9717
-53.1203
-53.2308
-53.3106
-53.3628
-53.3888
-53.3752
-53.3008
-53.1525
-52.933
-52.5918
-52.0477
-52.1231
-52.1591
-52.3296
-52.4462
-52.5283
-52.5812
-52.6106
-52.6229
-52.6107
-52.5619
-52.4752
-52.3693
-52.23
-51.9186
-51.4149
-51.4267
-51.5359
-51.6062
-51.6478
-51.664
-51.6631
-51.6569
-51.6452
-51.6262
-51.6134
-51.6457
-51.7516
-51.7206
-50.6763
-50.668
-50.7275
-50.76
-50.7669
-50.7503
-50.7212
-50.6972
-50.6848
-50.6938
-50.755
-50.9312
-51.2974
-51.5594
-50.0105
-50.0008
-50.0524
-50.0789
-50.0779
-50.052
-50.0157
-49.9913
-49.992
-50.0388
-50.1811
-50.5062
-51.1337
-51.6755
-49.4203
-49.4296
-49.5198
-49.5783
-49.6025
-49.5984
-49.5838
-49.5852
-49.6223
-49.7271
-49.9666
-50.4516
-51.3419
-52.15
-48.8052
-48.8399
-48.9862
-49.0938
-49.1605
-49.1959
-49.2206
-49.265
-49.3547
-49.5328
-49.8829
-50.5381
-51.6974
-52.7743
-48.0715
-48.1206
-48.3034
-48.4485
-48.55
-48.6192
-48.6797
-48.7658
-48.9089
-49.1634
-49.6297
-50.4628
-51.9024
-53.2649
-47.2457
-47.2919
-47.4746
-47.6315
-47.7484
-47.8352
-47.9181
-48.0355
-48.2243
-48.5504
-49.1311
-50.1443
-51.8711
-53.531
-46.4402
-46.4735
-46.6313
-46.7807
-46.8996
-46.9947
-47.0945
-47.2399
-47.4719
-47.8667
-48.5581
-49.7459
-51.7485
-53.6919
-45.7288
-45.7496
-45.8823
-46.0215
-46.1398
-46.244
-46.3639
-46.542
-46.822
-47.2878
-48.0871
-49.438
-51.6889
-53.878
-45.1084
-45.1211
-45.2415
-45.3797
-45.5053
-45.6236
-45.7671
-45.9801
-46.309
-46.8441
-47.744
-49.2408
-51.7044
-54.0918
-44.5318
-44.543
-44.6669
-44.8164
-44.9597
-45.0996
-45.2702
-45.5176
-45.8909
-46.4862
-47.4716
-49.0904
-51.7266
-54.2609
-43.9501
-43.9676
-44.1105
-44.2787
-44.4422
-44.6059
-44.8046
-45.0853
-45.499
-46.1463
-47.2031
-48.9218
-51.6937
-54.3245
-43.3061
-43.3272
-43.4861
-43.6709
-43.8523
-44.0363
-44.2597
-44.5705
-45.0211
-45.7155
-46.8355
-48.6409
-51.5231
-54.2122
-42.5406
-42.5529
-42.7014
-42.8863
-43.0752
-43.2704
-43.5103
-43.844
-44.3249
-45.0604
-46.2369
-48.1196
-51.0939
-53.8168
-41.6548
-41.6477
-41.7594
-41.9208
-42.0969
-42.2877
-42.5309
-42.8753
-43.3744
-44.1381
-45.3569
-47.2994
-50.3397
-53.0688
-40.7164
-40.6881
-40.7573
-40.8836
-41.033
-41.2054
-41.4386
-41.7798
-42.2819
-43.0563
-44.2949
-46.2674
-49.3311
-52.0212
-39.7943
-39.7509
-39.7933
-39.8944
-40.0228
-40.1779
-40.3983
-40.7301
-41.2252
-41.9948
-43.2296
-45.196
-48.2273
-50.8199
-38.9447
-38.8997
-38.9451
-39.0411
-39.1634
-39.3126
-39.5273
-39.8512
-40.3346
-41.0857
-42.2907
-44.2091
-47.1441
-49.5778
-38.196
-38.1633
-38.2408
-38.3491
-38.4752
-38.624
-38.8344
-39.148
-39.6117
-40.3278
-41.4738
-43.2985
-46.0706
-48.2867
-37.521
-37.5035
-37.6222
-37.7474
-37.8773
-38.022
-38.221
-38.5135
-38.9432
-39.6049
-40.6637
-42.3536
-44.9051
-46.857
-36.8945
-36.885
-37.03
-37.1591
-37.2819
-37.4118
-37.5883
-37.8481
-38.2301
-38.8202
-39.7679
-41.2899
-43.5766
-45.2315
-36.3363
-36.3284
-36.4825
-36.602
-36.7062
-36.81
-36.9521
-37.1659
-37.4852
-37.9856
-38.8
-40.1256
-42.1125
-43.4462
-35.8965
-35.8908
-36.0517
-36.1574
-36.237
-36.3081
-36.4069
-36.5631
-36.8048
-37.1975
-37.8575
-38.9622
-40.6226
-41.6143
-35.6301
-35.63
-35.8066
-35.9047
-35.9631
-36.0019
-36.0548
-36.1476
-36.3036
-36.5779
-37.0699
-37.9379
-39.2544
-39.8869
-35.5981
-35.6066
-35.8083
-35.9087
-35.9554
-35.9696
-35.9821
-36.0149
-36.0866
-36.2406
-36.5593
-37.1823
-38.1444
-38.4046
-35.8695
-35.8902
-36.1237
-36.232
-36.2728
-36.2695
-36.2485
-36.2273
-36.2189
-36.2546
-36.4001
-36.7778
-37.3862
-37.2727
-36.4846
-36.5152
-36.7747
-36.8868
-36.9185
-36.8968
-36.8443
-36.7737
-36.6922
-36.619
-36.6035
-36.7515
-37.0265
-36.5563
-37.4294
-37.4591
-37.7204
-37.8247
-37.8428
-37.7999
-37.7159
-37.5998
-37.454
-37.2857
-37.1281
-37.0708
-37.0424
-36.2427
-38.6908
-38.71
-38.9472
-39.0299
-39.0278
-38.9613
-38.8463
-38.687
-38.4805
-38.222
-37.9296
-37.6782
-37.3643
-36.2556
-40.3025
-40.3082
-40.51
-40.5638
-40.5351
-40.4399
-40.2886
-40.0802
-39.8059
-39.4496
-39.0154
-38.5658
-37.969
-36.5602
-42.2995
-42.2943
-42.4616
-42.4857
-42.4287
-42.3016
-42.1098
-41.8461
-41.4956
-41.0302
-40.4413
-39.7811
-38.8921
-37.1806
-44.6299
-44.6225
-44.7674
-44.7706
-44.6912
-44.5356
-44.3045
-43.9843
-43.5533
-42.9713
-42.2173
-41.3338
-40.1398
-38.1163
-47.1438
-47.1399
-47.2743
-47.2676
-47.1757
-47.0011
-46.7391
-46.3687
-45.8613
-45.1654
-44.2478
-43.1421
-41.6423
-39.3071
-49.6777
-49.6765
-49.8023
-49.7892
-49.6887
-49.4999
-49.2127
-48.7987
-48.2226
-47.4219
-46.3521
-45.0367
-43.2436
-40.6108
-52.1059
-52.1041
-52.2156
-52.1958
-52.0884
-51.8855
-51.5727
-51.1145
-50.469
-49.5642
-48.3448
-46.8261
-44.7528
-41.8437
-54.3739
-54.3738
-54.4728
-54.4472
-54.3322
-54.1152
-53.7759
-53.2717
-52.554
-51.5426
-50.1742
-48.458
-46.1221
-42.9669
-56.4954
-56.504
-56.6036
-56.5828
-56.4675
-56.2419
-55.8816
-55.3378
-54.5563
-53.4504
-51.9495
-50.0573
-47.4884
-44.1232
-58.5076
-58.5325
-58.6514
-58.6537
-58.5557
-58.3375
-57.9706
-57.401
-56.5706
-55.3875
-53.7758
-51.7337
-48.962
-45.4181
-60.4716
-60.5241
-60.6839
-60.7255
-60.6593
-60.4647
-60.1085
-59.5299
-58.6658
-57.419
-55.7087
-53.528
-50.5642
-46.8529
-62.4423
-62.5325
-62.7573
-62.859
-62.8422
-62.6885
-62.3603
-61.7895
-60.9071
-59.6088
-57.8081
-55.4913
-52.331
-48.4441
-64.4277
-64.5568
-64.8522
-65.0246
-65.0713
-64.9721
-64.6842
-64.1325
-63.2432
-61.9067
-60.0306
-57.5936
-54.251
-50.1944
-66.4109
-66.5732
-66.9222
-67.1497
-67.2452
-67.1877
-66.9285
-66.386
-65.4839
-64.1104
-62.1719
-59.6412
-56.1577
-51.9723
-68.3767
-68.5627
-68.9381
-69.1932
-69.3081
-69.2621
-69.003
-68.4452
-67.5114
-66.0911
-64.092
-61.4853
-57.9032
-53.639
-70.3435
-70.5398
-70.9124
-71.1754
-71.2949
-71.2462
-70.9737
-70.3893
-69.4168
-67.949
-65.8983
-63.2382
-59.5995
-55.3006
-72.4299
-72.632
-72.9939
-73.2543
-73.3688
-73.3135
-73.0284
-72.4219
-71.4196
-69.9187
-67.8385
-65.1579
-61.5076
-57.2133
-74.803
-75.0189
-75.3881
-75.6545
-75.7681
-75.7072
-75.4092
-74.7801
-73.7479
-72.2149
-70.11
-67.4184
-63.7722
-59.4956
-77.5159
-77.7552
-78.1527
-78.4406
-78.5657
-78.5078
-78.2018
-77.5508
-76.4851
-74.9128
-72.772
-70.0548
-66.394
-62.1155
-80.4965
-80.7605
-81.1891
-81.4949
-81.6244
-81.5622
-81.2411
-80.562
-79.4593
-77.848
-75.6749
-72.935
-69.2569
-64.9688
-83.634
-83.9106
-84.3395
-84.6336
-84.7395
-84.6462
-84.2869
-83.5638
-82.4173
-80.7711
-78.5788
-75.834
-72.1566
-67.8777
-86.8252
-87.0957
-87.481
-87.7305
-87.7873
-87.6417
-87.2289
-86.4532
-85.2608
-83.5833
-81.3794
-78.6394
-74.9778
-70.7326
-90.0367
-90.2864
-90.6006
-90.7856
-90.7796
-90.5741
-90.104
-89.274
-88.0343
-86.3251
-84.1121
-81.386
-77.7628
-73.5863
-93.3232
-93.5492
-93.7892
-93.9066
-93.8356
-93.5686
-93.0408
-92.1578
-90.8742
-89.1395
-86.9271
-84.2277
-80.6604
-76.5747
-96.7229
-96.9294
-97.1165
-97.1857
-97.0702
-96.7618
-96.1966
-95.2819
-93.9773
-92.2395
-90.0469
-87.3867
-83.8822
-79.8901
-100.264
-100.465
-100.642
-100.697
-100.567
-100.246
-99.6719
-98.7518
-97.449
-95.7264
-93.5675
-90.9581
-87.5275
-83.6371
-103.977
-104.189
-104.4
-104.475
-104.359
-104.05
-103.487
-102.578
-101.292
-99.5979
-97.4828
-94.9288
-91.5687
-87.7716
-107.821
-108.048
-108.306
-108.418
-108.335
-108.059
-107.527
-106.652
-105.406
-103.763
-101.714
-99.2298
-95.9482
-92.2463
-111.705
-111.934
-112.208
-112.33
-112.266
-112.021
-111.531
-110.708
-109.522
-107.952
-105.985
-103.592
-100.421
-96.858
-115.49
-115.696
-115.921
-116.005
-115.918
-115.669
-115.2
-114.421
-113.299
-111.812
-109.947
-107.671
-104.651
-101.283
-118.985
-119.131
-119.242
-119.253
-119.126
-118.855
-118.382
-117.625
-116.553
-115.15
-113.403
-111.276
-108.463
-105.358
-122.195
-122.267
-122.24
-122.171
-122.006
-121.724
-121.261
-120.535
-119.519
-118.204
-116.583
-114.622
-112.05
-109.255
-125.366
-125.394
-125.29
-125.178
-124.997
-124.727
-124.307
-123.659
-122.754
-121.577
-120.123
-118.363
-116.065
-113.597
-128.607
-128.638
-128.555
-128.492
-128.382
-128.198
-127.885
-127.369
-126.625
-125.64
-124.409
-122.908
-120.941
-118.841
-131.626
-131.677
-131.65
-131.671
-131.677
-131.639
-131.495
-131.175
-130.655
-129.926
-128.978
-127.786
-126.203
-124.524
-133.979
-134.037
-134.018
-134.073
-134.141
-134.198
-134.196
-134.071
-133.793
-133.341
-132.697
-131.833
-130.639
-129.386
-135.435
-135.46
-135.385
-135.422
-135.488
-135.56
-135.61
-135.584
-135.449
-135.186
-134.778
-134.188
-133.307
-132.388
-136.355
-136.332
-136.195
-136.203
-136.261
-136.332
-136.395
-136.402
-136.324
-136.146
-135.847
-135.382
-134.617
-133.81
-137.255
-137.288
-137.195
-137.205
-137.245
-137.279
-137.272
-137.172
-136.948
-136.591
-136.086
-135.379
-134.344
-133.365
-2.08714
-2.17118
-2.30454
-2.42874
-2.54731
-2.66167
-2.76721
-2.86096
-2.93796
-2.99176
-3.01185
-2.98245
-2.88431
-2.75422
-5.7426
-5.87318
-6.0706
-6.23428
-6.36667
-6.4711
-6.54166
-6.56997
-6.54389
-6.45251
-6.28008
-6.00449
-5.59239
-5.15808
-8.82901
-8.92592
-9.0636
-9.17845
-9.25336
-9.28861
-9.27815
-9.21513
-9.08879
-8.88598
-8.58741
-8.16958
-7.59632
-7.01513
-11.9307
-12.0013
-12.0584
-12.12
-12.1495
-12.1351
-12.0661
-11.935
-11.733
-11.4496
-11.0684
-10.5691
-9.91489
-9.26411
-15.2678
-15.3484
-15.3904
-15.4377
-15.4521
-15.4245
-15.3424
-15.1955
-14.9728
-14.6625
-14.2471
-13.7068
-13.0027
-12.2989
-18.6566
-18.767
-18.8556
-18.9421
-18.9866
-18.9813
-18.9166
-18.783
-18.5676
-18.2572
-17.8319
-17.2698
-16.5247
-15.7633
-21.891
-22.0348
-22.1843
-22.3222
-22.4124
-22.4487
-22.4187
-22.3109
-22.1103
-21.8033
-21.3693
-20.7842
-19.9951
-19.1721
-24.8935
-25.0635
-25.271
-25.4542
-25.5802
-25.6472
-25.6439
-25.5581
-25.3712
-25.0687
-24.6283
-24.0241
-23.1962
-22.3157
-27.6765
-27.8545
-28.0863
-28.2932
-28.4394
-28.5233
-28.535
-28.4621
-28.2837
-27.9842
-27.5399
-26.9237
-26.069
-25.1493
-30.292
-30.4632
-30.6797
-30.8797
-31.0239
-31.1092
-31.1243
-31.0561
-30.8829
-30.5882
-30.1469
-29.5305
-28.6692
-27.7402
-32.7896
-32.9441
-33.1274
-33.3049
-33.4329
-33.5063
-33.5148
-33.4461
-33.2782
-32.9932
-32.5643
-31.9626
-31.1159
-30.2058
-35.2191
-35.3556
-35.5034
-35.6571
-35.7686
-35.8318
-35.8385
-35.7781
-35.6284
-35.3698
-34.9728
-34.4046
-33.589
-32.7124
-37.6301
-37.7548
-37.8824
-38.0243
-38.132
-38.2
-38.2214
-38.1858
-38.0704
-37.8529
-37.4997
-36.9734
-36.1898
-35.3384
-40.0455
-40.1689
-40.3029
-40.453
-40.5748
-40.6632
-40.7114
-40.7078
-40.6274
-40.4454
-40.1247
-39.6228
-38.8451
-37.9866
-42.4173
-42.5457
-42.6997
-42.8672
-43.0098
-43.1237
-43.2022
-43.2327
-43.187
-43.0361
-42.738
-42.2444
-41.4488
-40.5539
-44.6279
-44.754
-44.9159
-45.0901
-45.2446
-45.3759
-45.4776
-45.5356
-45.5177
-45.3915
-45.1112
-44.6245
-43.8124
-42.8804
-46.5669
-46.6764
-46.8182
-46.9755
-47.1202
-47.2479
-47.3525
-47.4187
-47.4126
-47.2997
-47.0327
-46.5581
-45.7471
-44.8049
-48.1931
-48.2733
-48.3698
-48.4903
-48.608
-48.7174
-48.8124
-48.8778
-48.8795
-48.7817
-48.5367
-48.0912
-47.3078
-46.3855
-49.5678
-49.6178
-49.6715
-49.7571
-49.8503
-49.9442
-50.0336
-50.1036
-50.1204
-50.0471
-49.8358
-49.4322
-48.689
-47.7948
-50.8008
-50.8386
-50.8843
-50.9591
-51.0462
-51.1411
-51.2394
-51.3262
-51.3669
-51.3226
-51.1439
-50.7745
-50.0556
-49.1691
-51.9242
-51.9707
-52.0527
-52.1507
-52.2592
-52.3783
-52.5045
-52.6221
-52.6943
-52.6798
-52.5263
-52.1737
-51.4496
-50.5339
-52.8667
-52.9296
-53.0706
-53.2117
-53.3593
-53.5155
-53.6775
-53.829
-53.931
-53.9404
-53.8019
-53.4502
-52.6971
-51.7238
-53.5365
-53.6115
-53.797
-53.9684
-54.1429
-54.3247
-54.5109
-54.6847
-54.8056
-54.8291
-54.6972
-54.3401
-53.5561
-52.5282
-53.8864
-53.9605
-54.1582
-54.3319
-54.5057
-54.6876
-54.8755
-55.0539
-55.1817
-55.2131
-55.0887
-54.7361
-53.9453
-52.8962
-53.9506
-54.0108
-54.1952
-54.3534
-54.511
-54.677
-54.8522
-55.0236
-55.152
-55.1911
-55.0814
-54.7496
-53.9821
-52.9489
-53.8422
-53.8888
-54.0561
-54.1985
-54.3418
-54.4951
-54.6618
-54.8313
-54.9668
-55.0218
-54.9368
-54.6384
-53.9119
-52.9137
-53.675
-53.7205
-53.8913
-54.0349
-54.1788
-54.3351
-54.509
-54.6919
-54.8484
-54.9325
-54.884
-54.6289
-53.9524
-52.9936
-53.4933
-53.5498
-53.7491
-53.9145
-54.0768
-54.2511
-54.4446
-54.6508
-54.8356
-54.9544
-54.9472
-54.7394
-54.1174
-53.1987
-53.2812
-53.3534
-53.59
-53.7838
-53.9688
-54.1626
-54.3748
-54.601
-54.8091
-54.9573
-54.9867
-54.8242
-54.262
-53.3933
-52.9974
-53.0813
-53.3438
-53.5572
-53.7558
-53.9596
-54.1805
-54.4178
-54.642
-54.8152
-54.8821
-54.7743
-54.2975
-53.5146
-52.5964
-52.6807
-52.941
-53.1541
-53.3508
-53.5521
-53.7733
-54.0178
-54.2604
-54.4686
-54.5934
-54.5757
-54.2419
-53.6101
-52.045
-52.1152
-52.3405
-52.5299
-52.7072
-52.8935
-53.1078
-53.3584
-53.6257
-53.8844
-54.0947
-54.2113
-54.0885
-53.6835
-51.3635
-51.4107
-51.5835
-51.7368
-51.8843
-52.0464
-52.2463
-52.4974
-52.7875
-53.0998
-53.4077
-53.6843
-53.8197
-53.6984
-50.6427
-50.6739
-50.8078
-50.9337
-51.0572
-51.1991
-51.3864
-51.6373
-51.9469
-52.3089
-52.7123
-53.1534
-53.5646
-53.75
-49.969
-50.0037
-50.1406