/*--------------------------------*- C++ -*----------------------------------*\
| =========                 |                                                 |
| \\      /  F ield         | OpenFOAM: The Open Source CFD Toolbox           |
|  \\    /   O peration     | Version:  5.x                                   |
|   \\  /    A nd           | Web:      www.OpenFOAM.org                      |
|    \\/     M anipulation  |                                                 |
\*---------------------------------------------------------------------------*/
/*   Windows 32 and 64 bit porting by blueCAPE: http://www.bluecape.com.pt   *\
|  Based on Windows porting (2.0.x v4) by Symscape: http://www.symscape.com   |
\*---------------------------------------------------------------------------*/
FoamFile
{
    version     2.0;
    format      ascii;
    class       volVectorField;
    location    "0.75";
    object      U;
}
// * * * * * * * * * * * * * * * * * * * * * * * * * * * * * * * * * * * * * //

dimensions      [0 1 -1 0 0 0 0];

internalField   nonuniform List<vector> 
141075
(
(0.310227 0.686692 5.28281)
(0.321745 0.684393 5.22557)
(0.349976 0.688464 5.22058)
(0.351198 0.674447 5.22601)
(0.354295 0.658767 5.22848)
(0.360011 0.640805 5.22863)
(0.367399 0.621102 5.22592)
(0.377571 0.59935 5.22005)
(0.389908 0.57605 5.21015)
(0.404418 0.552277 5.19517)
(0.421066 0.528445 5.17396)
(0.439555 0.506401 5.14533)
(0.459939 0.485904 5.10971)
(0.475362 0.464555 5.11715)
(0.257249 0.65854 5.19535)
(0.251991 0.634382 5.14755)
(0.315557 0.660241 5.17528)
(0.31514 0.640651 5.16954)
(0.316461 0.62085 5.16282)
(0.319666 0.600735 5.15479)
(0.324771 0.5803 5.14533)
(0.332077 0.560442 5.1343)
(0.341081 0.541366 5.12122)
(0.352335 0.523243 5.10602)
(0.365687 0.506702 5.08866)
(0.381353 0.49235 5.06935)
(0.400644 0.477147 5.0496)
(0.414192 0.459054 5.04378)
(0.224925 0.675869 5.09852)
(0.20541 0.642894 5.04166)
(0.294252 0.692925 5.09446)
(0.294049 0.670237 5.08525)
(0.294188 0.649082 5.07616)
(0.295793 0.628347 5.06683)
(0.298876 0.608222 5.05689)
(0.303974 0.589261 5.04623)
(0.310649 0.571755 5.03488)
(0.319316 0.555616 5.02297)
(0.329936 0.540739 5.01091)
(0.343184 0.526069 4.99933)
(0.360343 0.507699 4.98942)
(0.376887 0.481676 4.97404)
(0.202566 0.709964 5.01137)
(0.171207 0.671845 4.94477)
(0.278779 0.742546 4.99052)
(0.279934 0.7161 4.9801)
(0.279326 0.693885 4.96952)
(0.279444 0.673283 4.95833)
(0.280626 0.654052 4.94638)
(0.283597 0.636263 4.93358)
(0.288017 0.619826 4.91996)
(0.294481 0.604184 4.90572)
(0.302734 0.588825 4.89127)
(0.313465 0.57173 4.87726)
(0.327922 0.549179 4.86468)
(0.34846 0.514359 4.84729)
(0.180117 0.750316 4.93322)
(0.142682 0.710059 4.86488)
(0.263769 0.796358 4.88295)
(0.262684 0.768638 4.87243)
(0.260915 0.744068 4.86001)
(0.259896 0.721414 4.84579)
(0.26012 0.700449 4.83004)
(0.261989 0.681526 4.81284)
(0.265149 0.664278 4.79431)
(0.270143 0.648018 4.77457)
(0.276506 0.631836 4.75381)
(0.285019 0.613268 4.73249)
(0.297032 0.588987 4.71159)
(0.319337 0.549747 4.69774)
(0.149296 0.794649 4.84573)
(0.109564 0.748458 4.78024)
(0.244811 0.844619 4.76779)
(0.242135 0.815471 4.75746)
(0.238683 0.789817 4.74415)
(0.236541 0.765491 4.72834)
(0.235982 0.742498 4.71024)
(0.237304 0.72147 4.69001)
(0.239967 0.702209 4.66783)
(0.244303 0.684339 4.64383)
(0.249625 0.666852 4.61817)
(0.256563 0.647549 4.59123)
(0.266638 0.623102 4.56403)
(0.288847 0.582054 4.55515)
(0.10872 0.842149 4.74138)
(0.0664973 0.790052 4.6859)
(0.216934 0.889842 4.65077)
(0.217757 0.854385 4.63817)
(0.214731 0.825837 4.62284)
(0.21292 0.798835 4.6051)
(0.212276 0.773759 4.58515)
(0.213364 0.751043 4.56317)
(0.215633 0.730281 4.53922)
(0.21952 0.71114 4.51345)
(0.224246 0.692606 4.48602)
(0.23021 0.673161 4.45727)
(0.239032 0.648777 4.42829)
(0.259966 0.606663 4.4231)
(0.0796108 0.877048 4.62053)
(0.0400793 0.826153 4.5718)
(0.194825 0.927969 4.52496)
(0.19236 0.892588 4.51097)
(0.189499 0.860559 4.49424)
(0.187874 0.830464 4.47514)
(0.187668 0.802223 4.45403)
(0.189225 0.776682 4.43125)
(0.191808 0.753449 4.40688)
(0.195981 0.732201 4.38116)
(0.200805 0.711937 4.35424)
(0.206569 0.691758 4.32647)
(0.215231 0.666337 4.29904)
(0.235849 0.621937 4.29599)
(0.0551133 0.897677 4.48519)
(0.0163634 0.845805 4.43571)
(0.175223 0.949276 4.38028)
(0.172572 0.913132 4.36603)
(0.169035 0.880957 4.34949)
(0.16707 0.850284 4.33111)
(0.166701 0.821065 4.31091)
(0.168268 0.794268 4.28915)
(0.170885 0.769593 4.26589)
(0.175153 0.746846 4.24143)
(0.180069 0.725168 4.21607)
(0.186033 0.704039 4.19031)
(0.195258 0.676887 4.16558)
(0.216402 0.629512 4.16435)
(0.0349774 0.904624 4.34572)
(-0.00457092 0.853725 4.29952)
(0.156379 0.957357 4.23169)
(0.156459 0.918621 4.21543)
(0.153197 0.886466 4.19802)
(0.151282 0.855963 4.17937)
(0.150523 0.827228 4.15934)
(0.15143 0.801032 4.13796)
(0.153292 0.776855 4.11517)
(0.156952 0.754236 4.09123)
(0.161485 0.732335 4.06644)
(0.167387 0.710607 4.04138)
(0.176915 0.681953 4.01782)
(0.199748 0.631686 4.01937)
(0.029476 0.892183 4.20816)
(-0.00764024 0.847701 4.16447)
(0.146699 0.951257 4.07668)
(0.144607 0.914771 4.05932)
(0.141078 0.882815 4.04114)
(0.138522 0.853031 4.02175)
(0.137097 0.825 4.00105)
(0.137134 0.79954 3.97893)
(0.137982 0.776105 3.95528)
(0.14053 0.754087 3.9302)
(0.143868 0.732676 3.90392)
(0.148747 0.710949 3.877)
(0.157555 0.681747 3.8516)
(0.18219 0.63012 3.8578)
(0.0289201 0.867136 4.07525)
(-0.00640355 0.827501 4.03252)
(0.141273 0.929868 3.91309)
(0.138641 0.894995 3.89554)
(0.134263 0.864832 3.87707)
(0.130687 0.836732 3.85729)
(0.128044 0.810247 3.83597)
(0.126514 0.786291 3.81275)
(0.125551 0.764308 3.78746)
(0.126136 0.743745 3.76004)
(0.127507 0.723716 3.73068)
(0.130724 0.702922 3.69986)
(0.137991 0.674696 3.67008)
(0.163432 0.623835 3.68232)
(0.0295463 0.83377 3.94897)
(-0.00402919 0.79796 3.91187)
(0.137079 0.896336 3.75215)
(0.135566 0.862 3.73399)
(0.130942 0.833541 3.71483)
(0.126797 0.807108 3.6942)
(0.12306 0.782415 3.67181)
(0.119901 0.760326 3.64717)
(0.117006 0.740102 3.62006)
(0.115522 0.721332 3.59025)
(0.114801 0.70317 3.55777)
(0.116133 0.684333 3.5229)
(0.121669 0.658465 3.48821)
(0.147216 0.610001 3.50748)
(0.0381959 0.789754 3.82613)
(0.00993422 0.758974 3.79516)
(0.140769 0.850585 3.5945)
(0.13759 0.819041 3.57664)
(0.132454 0.791938 3.55747)
(0.127696 0.766822 3.53661)
(0.12321 0.743286 3.5138)
(0.119037 0.72232 3.48858)
(0.11488 0.70325 3.46065)
(0.111986 0.685967 3.42972)
(0.109818 0.669719 3.3957)
(0.109781 0.653732 3.35865)
(0.114174 0.630835 3.32103)
(0.137781 0.586054 3.34711)
(0.0534095 0.736834 3.70729)
(0.0306609 0.710041 3.68265)
(0.151115 0.792904 3.44629)
(0.147221 0.763637 3.429)
(0.141314 0.738626 3.41036)
(0.135924 0.71523 3.39011)
(0.13069 0.693184 3.36785)
(0.125667 0.673628 3.3432)
(0.120597 0.655875 3.31577)
(0.11696 0.640021 3.28535)
(0.114271 0.625544 3.25178)
(0.113837 0.612617 3.21501)
(0.118179 0.592272 3.17737)
(0.1388 0.550611 3.20854)
(0.0771908 0.67393 3.59682)
(0.0599553 0.652081 3.58119)
(0.167426 0.725109 3.3168)
(0.162861 0.698853 3.29936)
(0.156248 0.67661 3.28104)
(0.150257 0.655672 3.26142)
(0.14434 0.635809 3.24003)
(0.138624 0.618193 3.21644)
(0.132964 0.602054 3.19023)
(0.129017 0.587598 3.16121)
(0.126226 0.574726 3.12919)
(0.125773 0.564607 3.09404)
(0.130721 0.545713 3.05814)
(0.148451 0.505747 3.09335)
(0.111225 0.601098 3.49977)
(0.100377 0.586411 3.4932)
(0.190576 0.649331 3.20447)
(0.184331 0.627757 3.18659)
(0.176812 0.609064 3.16846)
(0.169983 0.591412 3.14935)
(0.163228 0.574445 3.12867)
(0.15664 0.559377 3.10582)
(0.150201 0.545386 3.08032)
(0.145643 0.532715 3.05194)
(0.1424 0.521607 3.0205)
(0.141631 0.514006 2.98593)
(0.146917 0.495766 2.95093)
(0.161788 0.456635 2.99047)
(0.148351 0.523519 3.42464)
(0.142501 0.516776 3.42857)
(0.213807 0.569172 3.11207)
(0.207521 0.55172 3.09341)
(0.19948 0.537179 3.07477)
(0.191936 0.523535 3.05509)
(0.184182 0.510387 3.03372)
(0.176295 0.498885 3.00981)
(0.168567 0.48795 2.9829)
(0.162725 0.477818 2.95262)
(0.158274 0.468956 2.91876)
(0.15645 0.463773 2.88131)
(0.161141 0.446181 2.84348)
(0.173857 0.407326 2.88875)
(0.185037 0.444713 3.37449)
(0.185659 0.446861 3.38939)
(0.235384 0.487672 3.03892)
(0.227633 0.475787 3.02013)
(0.218911 0.465403 3.00079)
(0.210465 0.455775 2.97978)
(0.201636 0.44637 2.95643)
(0.19236 0.438295 2.9298)
(0.183206 0.430338 2.8994)
(0.175739 0.422884 2.86468)
(0.169533 0.416565 2.82535)
(0.165901 0.414154 2.78128)
(0.168928 0.398076 2.73623)
(0.179097 0.360504 2.7891)
(0.212967 0.372324 3.34576)
(0.220787 0.380724 3.37074)
(0.251322 0.408154 2.98438)
(0.242833 0.400853 2.96621)
(0.233431 0.3943 2.94636)
(0.224146 0.388082 2.92398)
(0.214167 0.381823 2.89836)
(0.203436 0.376601 2.86857)
(0.192699 0.371224 2.83398)
(0.183475 0.366374 2.79396)
(0.175398 0.362853 2.74804)
(0.169735 0.364119 2.69593)
(0.170659 0.351131 2.64175)
(0.176755 0.317187 2.70259)
(0.22636 0.311573 3.33479)
(0.241187 0.323535 3.37176)
(0.256009 0.33566 2.95873)
(0.24801 0.33139 2.9408)
(0.238821 0.327391 2.92008)
(0.229591 0.323294 2.89598)
(0.21922 0.318929 2.86794)
(0.207698 0.315582 2.83514)
(0.195912 0.312013 2.79687)
(0.185565 0.309285 2.75248)
(0.176326 0.308514 2.70132)
(0.169378 0.314121 2.64288)
(0.169005 0.305362 2.58145)
(0.170442 0.276635 2.64831)
(0.230221 0.260085 3.33394)
(0.253583 0.275477 3.38074)
(0.252565 0.271584 2.96004)
(0.243254 0.271275 2.94267)
(0.234139 0.269178 2.92175)
(0.225136 0.266404 2.89698)
(0.214947 0.262867 2.86784)
(0.203449 0.260258 2.83371)
(0.19159 0.257436 2.7939)
(0.181173 0.255926 2.74778)
(0.171868 0.257344 2.69466)
(0.164806 0.267062 2.63396)
(0.164484 0.262322 2.57003)
(0.161653 0.23888 2.63949)
(0.226093 0.216977 3.33792)
(0.256435 0.234466 3.39086)
(0.242159 0.2156 2.98125)
(0.233138 0.217543 2.96429)
(0.223918 0.217574 2.94388)
(0.215009 0.216214 2.91983)
(0.204765 0.213808 2.89143)
(0.193165 0.212151 2.85809)
(0.181272 0.210281 2.81915)
(0.170926 0.20999 2.77402)
(0.161876 0.213383 2.72214)
(0.155246 0.226435 2.66302)
(0.155681 0.224682 2.60121)
(0.150186 0.205114 2.66977)
(0.21751 0.180184 3.35005)
(0.252512 0.200567 3.40856)
(0.226025 0.169165 3.02254)
(0.218501 0.172517 3.00509)
(0.209814 0.174351 2.98482)
(0.201174 0.17453 2.96123)
(0.190727 0.173704 2.9336)
(0.178631 0.173567 2.90132)
(0.166146 0.173287 2.86369)
(0.155258 0.17457 2.82017)
(0.145906 0.179868 2.77034)
(0.139349 0.195081 2.71386)
(0.140168 0.195206 2.65553)
(0.134927 0.177286 2.72128)
(0.208683 0.148083 3.37357)
(0.24793 0.173414 3.43482)
(0.207329 0.132028 3.07692)
(0.199494 0.138392 3.05938)
(0.19118 0.141928 3.03923)
(0.182484 0.143783 3.01585)
(0.171624 0.144536 2.98854)
(0.158695 0.145877 2.95666)
(0.14509 0.147135 2.91954)
(0.132948 0.149871 2.87663)
(0.122368 0.156739 2.82756)
(0.114879 0.172964 2.77213)
(0.11476 0.174391 2.71535)
(0.111825 0.156947 2.7784)
(0.192707 0.126366 3.40852)
(0.234487 0.155259 3.47013)
(0.181942 0.104834 3.13872)
(0.175067 0.112674 3.12154)
(0.167078 0.117652 3.10161)
(0.158182 0.120802 3.07835)
(0.146566 0.122828 3.05108)
(0.13229 0.125396 3.01908)
(0.116899 0.12791 2.98167)
(0.102702 0.131924 2.93828)
(0.0899141 0.140131 2.8885)
(0.0803998 0.156869 2.83224)
(0.0778381 0.159959 2.77459)
(0.0773051 0.143681 2.83538)
(0.166025 0.118656 3.45177)
(0.209962 0.149759 3.51373)
(0.14799 0.08989 3.20822)
(0.142882 0.0977176 3.19165)
(0.135624 0.102875 3.17197)
(0.126743 0.10606 3.14872)
(0.114374 0.108186 3.12131)
(0.0986071 0.11094 3.08906)
(0.0811302 0.113792 3.05132)
(0.0644821 0.118409 3.00745)
(0.049031 0.127448 2.95704)
(0.0369353 0.144452 2.9)
(0.0310275 0.149942 2.8413)
(0.0324892 0.136082 2.89934)
(0.131445 0.123415 3.49638)
(0.178115 0.155455 3.55693)
(0.108486 0.0859856 3.28183)
(0.104414 0.0936485 3.26679)
(0.0977673 0.0981633 3.2483)
(0.0888614 0.100452 3.22612)
(0.0757905 0.101584 3.19973)
(0.058675 0.103369 3.16861)
(0.0392165 0.105452 3.13211)
(0.0201781 0.109696 3.08967)
(0.00206878 0.118765 3.04085)
(-0.0127873 0.135597 2.98557)
(-0.0224945 0.14377 2.92853)
(-0.0192531 0.13294 2.98261)
(0.0907726 0.138503 3.53708)
(0.138972 0.169661 3.59496)
(0.0646739 0.0911308 3.35887)
(0.0625065 0.0972984 3.34564)
(0.0565163 0.100773 3.32912)
(0.0476852 0.101737 3.30922)
(0.033947 0.101498 3.28543)
(0.0155262 0.101972 3.25738)
(-0.00593229 0.102943 3.22444)
(-0.0274351 0.106375 3.18614)
(-0.048407 0.11499 3.1421)
(-0.0664325 0.131072 3.09229)
(-0.0806325 0.14159 3.04106)
(-0.0761167 0.133687 3.08924)
(0.0501871 0.159438 3.57202)
(0.099473 0.190393 3.62613)
(0.0204042 0.104246 3.43843)
(0.0192661 0.109194 3.42675)
(0.0137299 0.111377 3.41246)
(0.00478661 0.110953 3.39546)
(-0.00968812 0.109267 3.37523)
(-0.0294626 0.108341 3.35155)
(-0.053014 0.108089 3.32384)
(-0.0772107 0.110413 3.29177)
(-0.101536 0.118104 3.25505)
(-0.12351 0.132434 3.21374)
(-0.14346 0.144497 3.17183)
(-0.137962 0.138715 3.21168)
(0.0128155 0.183852 3.60285)
(0.0621667 0.215945 3.65163)
(-0.0229208 0.124241 3.51681)
(-0.0235971 0.128509 3.5065)
(-0.0291123 0.12987 3.49457)
(-0.038651 0.128599 3.4808)
(-0.0542928 0.12594 3.46468)
(-0.0758609 0.123883 3.44602)
(-0.101971 0.122484 3.42434)
(-0.129492 0.12343 3.39945)
(-0.15809 0.129516 3.37121)
(-0.185263 0.140657 3.33983)
(-0.21278 0.153298 3.30887)
(-0.205773 0.148308 3.3389)
(-0.0236785 0.212494 3.63499)
(0.0245502 0.247344 3.67937)
(-0.0683113 0.151313 3.59334)
(-0.068052 0.15501 3.58414)
(-0.0735009 0.155981 3.57427)
(-0.0837907 0.154378 3.56333)
(-0.100896 0.151268 3.55091)
(-0.124727 0.148456 3.5368)
(-0.15399 0.146024 3.5207)
(-0.185669 0.145316 3.50249)
(-0.219696 0.148991 3.4822)
(-0.253582 0.155344 3.4602)
(-0.290805 0.167471 3.43964)
(-0.281714 0.161801 3.4604)
(-0.0630663 0.247327 3.67109)
(-0.0151235 0.286924 3.71224)
(-0.118701 0.186008 3.66285)
(-0.117851 0.189786 3.65494)
(-0.123163 0.19049 3.64672)
(-0.134178 0.188668 3.63782)
(-0.152721 0.185149 3.62801)
(-0.178869 0.181468 3.61708)
(-0.211427 0.17765 3.60495)
(-0.247658 0.174689 3.59157)
(-0.28786 0.174911 3.57712)
(-0.329686 0.17491 3.56208)
(-0.378581 0.185254 3.54915)
(-0.367757 0.177532 3.56289)
(-0.113967 0.293067 3.70844)
(-0.0649283 0.337289 3.74704)
(-0.179689 0.229022 3.71913)
(-0.177311 0.23205 3.71267)
(-0.182171 0.232183 3.70556)
(-0.193482 0.229571 3.69775)
(-0.213072 0.225044 3.68914)
(-0.241136 0.219848 3.67964)
(-0.276608 0.21386 3.66932)
(-0.317146 0.207828 3.65823)
(-0.363558 0.203587 3.64658)
(-0.41384 0.196228 3.63489)
(-0.475536 0.203932 3.62543)
(-0.464299 0.193465 3.6347)
(-0.183463 0.351875 3.74035)
(-0.131638 0.399207 3.77795)
(-0.256458 0.280089 3.76193)
(-0.251487 0.281169 3.75654)
(-0.255123 0.279725 3.74987)
(-0.265882 0.275159 3.74214)
(-0.285689 0.268437 3.73346)
(-0.314787 0.260557 3.7239)
(-0.352296 0.251244 3.71363)
(-0.396293 0.241128 3.70275)
(-0.448224 0.231612 3.69146)
(-0.506594 0.216673 3.68021)
(-0.581051 0.221799 3.67089)
(-0.57108 0.209181 3.67739)
(-0.270351 0.420797 3.75747)
(-0.213207 0.470713 3.79479)
(-0.348177 0.337239 3.79114)
(-0.341095 0.336006 3.78641)
(-0.343053 0.331704 3.77994)
(-0.352694 0.323932 3.77215)
(-0.372013 0.313708 3.76334)
(-0.401327 0.301903 3.75374)
(-0.440025 0.288148 3.74352)
(-0.486592 0.273062 3.73287)
(-0.543165 0.257753 3.72194)
(-0.608901 0.235533 3.71112)
(-0.695521 0.238863 3.70199)
(-0.688289 0.225699 3.706)
(-0.369725 0.494483 3.75288)
(-0.306052 0.547103 3.78949)
(-0.451565 0.397199 3.80487)
(-0.442269 0.393006 3.80059)
(-0.442405 0.38517 3.79469)
(-0.450703 0.373427 3.78769)
(-0.469262 0.35889 3.77997)
(-0.498516 0.342492 3.77179)
(-0.538093 0.323756 3.76342)
(-0.586915 0.303354 3.7551)
(-0.647782 0.282202 3.747)
(-0.720526 0.253055 3.73955)
(-0.818996 0.255276 3.73403)
(-0.81541 0.24294 3.73441)
(-0.47282 0.564402 3.72377)
(-0.403083 0.620379 3.75873)
(-0.560105 0.454244 3.79719)
(-0.548158 0.446853 3.79361)
(-0.546654 0.435889 3.7892)
(-0.55385 0.42056 3.78435)
(-0.571918 0.402128 3.77939)
(-0.601385 0.381481 3.77459)
(-0.641994 0.358022 3.77033)
(-0.693223 0.332466 3.76694)
(-0.758477 0.305563 3.76472)
(-0.83822 0.269342 3.76419)
(-0.948474 0.270115 3.7663)
(-0.948507 0.258408 3.76149)
(-0.568815 0.621533 3.67269)
(-0.494494 0.681971 3.70502)
(-0.664436 0.501668 3.76229)
(-0.650041 0.491658 3.75995)
(-0.647307 0.47839 3.75781)
(-0.653963 0.460549 3.75601)
(-0.67216 0.439435 3.75484)
(-0.702388 0.415617 3.75453)
(-0.744421 0.388357 3.75559)
(-0.798307 0.358275 3.75839)
(-0.868011 0.325849 3.76342)
(-0.954611 0.282243 3.77125)
(-1.0762 0.280465 3.78234)
(-1.07911 0.267773 3.772)
(-0.650226 0.660168 3.60833)
(-0.572623 0.726558 3.63815)
(-0.757058 0.53483 3.70383)
(-0.741667 0.523761 3.70313)
(-0.738208 0.508869 3.70318)
(-0.74483 0.489433 3.70398)
(-0.763527 0.466503 3.70592)
(-0.794758 0.440378 3.70932)
(-0.83835 0.410103 3.71468)
(-0.894771 0.376122 3.72248)
(-0.968547 0.338536 3.73323)
(-1.06131 0.287683 3.7475)
(-1.19297 0.282439 3.76515)
(-1.19822 0.267292 3.75088)
(-0.71542 0.679947 3.53665)
(-0.63433 0.75261 3.56425)
(-0.833861 0.551618 3.62675)
(-0.819909 0.54153 3.62796)
(-0.816945 0.526069 3.62984)
(-0.824262 0.505815 3.63253)
(-0.84369 0.481455 3.63649)
(-0.875833 0.45328 3.64206)
(-0.92065 0.420107 3.64976)
(-0.979001 0.382378 3.66013)
(-1.056 0.339912 3.67359)
(-1.15379 0.282511 3.69064)
(-1.29374 0.273683 3.71064)
(-1.30197 0.256023 3.69521)
(-0.770137 0.6871 3.45845)
(-0.686103 0.763409 3.48605)
(-0.897002 0.553705 3.53654)
(-0.883222 0.543248 3.53876)
(-0.881191 0.527744 3.54165)
(-0.889422 0.506901 3.54545)
(-0.909823 0.481426 3.55052)
(-0.943024 0.451502 3.5571)
(-0.989013 0.415681 3.56569)
(-1.04905 0.374523 3.57673)
(-1.12878 0.327727 3.59057)
(-1.23081 0.265059 3.60761)
(-1.37766 0.253328 3.6269)
(-1.39059 0.234359 3.61295)
(-0.813242 0.683828 3.37445)
(-0.726632 0.762659 3.40541)
(-0.946902 0.543853 3.44153)
(-0.932863 0.532309 3.44341)
(-0.931095 0.515693 3.44598)
(-0.939734 0.493453 3.4495)
(-0.960786 0.466341 3.45431)
(-0.994829 0.434405 3.46067)
(-1.04183 0.395967 3.46896)
(-1.10336 0.351653 3.47955)
(-1.18547 0.301109 3.49271)
(-1.29129 0.234538 3.50867)
(-1.44413 0.220731 3.52632)
(-1.46361 0.201591 3.51523)
(-0.837304 0.667195 3.28374)
(-0.747071 0.749326 3.31667)
(-0.978308 0.521315 3.34121)
(-0.966702 0.510628 3.34287)
(-0.965672 0.492657 3.34509)
(-0.974919 0.46871 3.3482)
(-0.996445 0.439356 3.35257)
(-1.03094 0.404755 3.35852)
(-1.07851 0.363187 3.36638)
(-1.14101 0.315393 3.37649)
(-1.22492 0.261081 3.38907)
(-1.33395 0.191331 3.40427)
(-1.49194 0.175723 3.42087)
(-1.51898 0.156633 3.41259)
(-0.843318 0.639137 3.18724)
(-0.749532 0.72343 3.22055)
(-0.990179 0.486237 3.23591)
(-0.979614 0.475097 3.23726)
(-0.979974 0.456624 3.2396)
(-0.990367 0.43147 3.24321)
(-1.01295 0.400338 3.24821)
(-1.04836 0.363451 3.25478)
(-1.0968 0.318994 3.26315)
(-1.16035 0.267888 3.27368)
(-1.24595 0.21003 3.28656)
(-1.35785 0.137676 3.30192)
(-1.52024 0.120283 3.31855)
(-1.55484 0.100828 3.31247)
(-0.829551 0.598659 3.09159)
(-0.733386 0.685457 3.12761)
(-0.982678 0.439972 3.13321)
(-0.971181 0.427358 3.13333)
(-0.972306 0.408529 3.13547)
(-0.98376 0.382711 3.13941)
(-1.00777 0.350685 3.14506)
(-1.04474 0.31253 3.15241)
(-1.09471 0.266173 3.16156)
(-1.15989 0.212634 3.17279)
(-1.24751 0.152016 3.18623)
(-1.36221 0.0777943 3.20205)
(-1.52828 0.0585947 3.21914)
(-1.56956 0.0379646 3.21538)
(-0.789444 0.541203 3.0042)
(-0.69068 0.634071 3.04281)
(-0.952548 0.38203 3.0339)
(-0.942703 0.371096 3.03327)
(-0.944643 0.35236 3.03513)
(-0.957385 0.326735 3.03891)
(-0.982921 0.294551 3.0445)
(-1.02155 0.255873 3.05177)
(-1.0732 0.208426 3.06074)
(-1.14018 0.153314 3.07159)
(-1.22984 0.0907818 3.0844)
(-1.34698 0.0154711 3.09933)
(-1.51577 -0.00558465 3.11545)
(-1.56238 -0.0284409 3.11553)
(-0.730874 0.471853 2.93088)
(-0.628783 0.571752 2.97052)
(-0.904134 0.31406 2.93827)
(-0.896566 0.306103 2.93768)
(-0.899993 0.288908 2.93936)
(-0.914423 0.26463 2.94271)
(-0.941672 0.233213 2.94754)
(-0.982021 0.194855 2.95357)
(-1.03529 0.147128 2.96078)
(-1.10388 0.0913442 2.96925)
(-1.19519 0.0278938 2.97897)
(-1.31407 -0.0473743 2.99009)
(-1.4843 -0.0699417 3.00194)
(-1.53514 -0.0955334 3.0082)
(-0.667412 0.400178 2.87315)
(-0.561226 0.505319 2.9155)
(-0.846896 0.241603 2.85252)
(-0.839828 0.23543 2.8517)
(-0.844539 0.220297 2.8527)
(-0.860367 0.19771 2.8549)
(-0.889163 0.16761 2.85802)
(-0.931074 0.130254 2.86162)
(-0.985666 0.08303 2.86557)
(-1.0554 0.0275648 2.86979)
(-1.14757 -0.0355596 2.87415)
(-1.26705 -0.109025 2.87869)
(-1.43697 -0.131931 2.88305)
(-1.49162 -0.159297 2.89727)
(-0.603802 0.329989 2.82612)
(-0.492071 0.439268 2.87248)
(-0.785438 0.168903 2.77908)
(-0.778944 0.164454 2.7781)
(-0.784415 0.150814 2.77827)
(-0.801048 0.129492 2.77906)
(-0.830765 0.100483 2.78016)
(-0.873552 0.0642106 2.78109)
(-0.928713 0.0179589 2.78157)
(-0.998592 -0.0362821 2.78134)
(-1.09024 -0.0977197 2.78012)
(-1.20856 -0.167231 2.77773)
(-1.3758 -0.188679 2.77404)
(-1.43422 -0.215674 2.7962)
(-0.541464 0.261707 2.78403)
(-0.42307 0.374427 2.83352)
(-0.721898 0.0973451 2.71856)
(-0.716398 0.0948101 2.71808)
(-0.722375 0.082428 2.7181)
(-0.739295 0.0621729 2.71823)
(-0.769199 0.0340716 2.7182)
(-0.811973 -0.00105494 2.71756)
(-0.866708 -0.0459228 2.71594)
(-0.935501 -0.0981237 2.71298)
(-1.02501 -0.156559 2.70825)
(-1.14013 -0.220173 2.70138)
(-1.30195 -0.238607 2.69235)
(-1.36365 -0.26337 2.72016)
(-0.480108 0.194248 2.74317)
(-0.354983 0.309541 2.79399)
(-0.657112 0.0269783 2.67122)
(-0.65271 0.0264734 2.67165)
(-0.659335 0.0158123 2.67236)
(-0.676404 -0.0029552 2.67303)
(-0.706141 -0.0296465 2.67336)
(-0.748338 -0.0630526 2.67289)
(-0.801823 -0.105834 2.67126)
(-0.868444 -0.155177 2.6681)
(-0.954322 -0.209574 2.66292)
(-1.06422 -0.266145 2.65526)
(-1.21789 -0.281069 2.64512)
(-1.28149 -0.303181 2.6749)
(-0.418654 0.127467 2.70223)
(-0.288065 0.244488 2.7522)
(-0.591452 -0.0412063 2.63451)
(-0.587623 -0.0397071 2.63583)
(-0.594904 -0.0480432 2.63769)
(-0.61215 -0.0646728 2.63972)
(-0.641764 -0.089125 2.64154)
(-0.683307 -0.12 2.6427)
(-0.735237 -0.159805 2.64286)
(-0.799103 -0.205423 2.64163)
(-0.880288 -0.254974 2.63862)
(-0.983277 -0.303992 2.63335)
(-1.12629 -0.315761 2.62567)
(-1.18967 -0.336119 2.65417)
(-0.356605 0.063183 2.66348)
(-0.221702 0.182342 2.7111)
(-0.525572 -0.104532 2.60742)
(-0.522089 -0.100895 2.60954)
(-0.529595 -0.106942 2.61251)
(-0.546751 -0.121179 2.61586)
(-0.576022 -0.142996 2.61931)
(-0.616702 -0.170852 2.62245)
(-0.666847 -0.207084 2.62499)
(-0.727586 -0.24841 2.62656)
(-0.803419 -0.292662 2.62684)
(-0.898446 -0.334084 2.62534)
(-1.02918 -0.343346 2.62168)
(-1.09037 -0.363431 2.6471)
(-0.294564 0.00314557 2.628)
(-0.15573 0.124559 2.67116)
(-0.45969 -0.161932 2.5872)
(-0.457491 -0.155324 2.59072)
(-0.465152 -0.159184 2.59505)
(-0.482017 -0.171073 2.59981)
(-0.5105 -0.190409 2.60487)
(-0.549823 -0.215364 2.60991)
(-0.597735 -0.248105 2.61472)
(-0.654961 -0.285231 2.61897)
(-0.725173 -0.324285 2.62236)
(-0.81204 -0.358417 2.62436)
(-0.930218 -0.365699 2.6243)
(-0.988528 -0.386644 2.64598)
(-0.234917 -0.0493976 2.59371)
(-0.0924231 0.0726919 2.63019)
(-0.393798 -0.21265 2.57074)
(-0.392407 -0.204137 2.57612)
(-0.40049 -0.206018 2.58224)
(-0.417183 -0.215944 2.5889)
(-0.444937 -0.233114 2.59604)
(-0.482913 -0.255472 2.60335)
(-0.528601 -0.285033 2.61071)
(-0.582396 -0.31824 2.61777)
(-0.64723 -0.352405 2.62424)
(-0.726431 -0.379473 2.62957)
(-0.832777 -0.384844 2.63263)
(-0.889077 -0.406765 2.64993)
(-0.176693 -0.0937622 2.55882)
(-0.0313336 0.0277012 2.58729)
(-0.327141 -0.255743 2.55926)
(-0.325812 -0.246617 2.56642)
(-0.334113 -0.247392 2.57446)
(-0.350546 -0.256244 2.58331)
(-0.377657 -0.272001 2.59299)
(-0.414436 -0.292409 2.60326)
(-0.458133 -0.319373 2.61401)
(-0.508739 -0.349112 2.6249)
(-0.568483 -0.3788 2.63564)
(-0.640496 -0.398887 2.64562)
(-0.735749 -0.402187 2.65316)
(-0.791645 -0.424607 2.66449)
(-0.114068 -0.134483 2.52236)
(0.0335198 -0.0137238 2.53957)
(-0.256068 -0.293604 2.55264)
(-0.256202 -0.283064 2.56211)
(-0.264963 -0.283188 2.57264)
(-0.281288 -0.291449 2.58435)
(-0.307746 -0.306436 2.59738)
(-0.343216 -0.325568 2.61167)
(-0.384835 -0.350602 2.62716)
(-0.432172 -0.377516 2.64359)
(-0.486839 -0.403342 2.66066)
(-0.551953 -0.416834 2.67776)
(-0.636695 -0.418321 2.6925)
(-0.693519 -0.441232 2.69518)
(-0.0445813 -0.17393 2.4851)
(0.104556 -0.0545856 2.48668)
(-0.177686 -0.328442 2.54942)
(-0.18013 -0.315963 2.56161)
(-0.190244 -0.31476 2.5754)
(-0.207093 -0.322032 2.59104)
(-0.233326 -0.336116 2.60867)
(-0.26774 -0.354078 2.62832)
(-0.307482 -0.3775 2.65001)
(-0.351787 -0.402123 2.67359)
(-0.401754 -0.424776 2.69885)
(-0.460571 -0.432498 2.72522)
(-0.535636 -0.433043 2.74965)
(-0.594141 -0.457293 2.74114)
(0.029762 -0.210171 2.45162)
(0.178028 -0.0932344 2.43683)
(-0.0938495 -0.358234 2.55273)
(-0.0968088 -0.345457 2.56671)
(-0.108242 -0.342705 2.58343)
(-0.125803 -0.348628 2.60294)
(-0.152273 -0.361265 2.62532)
(-0.186212 -0.377567 2.6506)
(-0.224688 -0.399149 2.67882)
(-0.266593 -0.421623 2.70997)
(-0.312532 -0.441648 2.74391)
(-0.365737 -0.444615 2.78022)
(-0.431833 -0.44548 2.81522)
(-0.492044 -0.472608 2.79469)
(0.110914 -0.244715 2.42706)
(0.255937 -0.129311 2.39663)
(-0.00532344 -0.381848 2.5629)
(-0.00972431 -0.368247 2.5782)
(-0.0221064 -0.364707 2.59715)
(-0.040251 -0.3695 2.61954)
(-0.0667949 -0.380827 2.64555)
(-0.100159 -0.395503 2.67523)
(-0.137292 -0.415319 2.70872)
(-0.176784 -0.435844 2.74607)
(-0.21876 -0.453657 2.78721)
(-0.266475 -0.452713 2.83183)
(-0.323766 -0.455077 2.87574)
(-0.38536 -0.486579 2.84437)
(0.199004 -0.278356 2.41345)
(0.34019 -0.163827 2.36641)
(0.0896139 -0.400316 2.57408)
(0.0813294 -0.384691 2.59148)
(0.067167 -0.380545 2.61262)
(0.0478182 -0.384289 2.63736)
(0.0209659 -0.394521 2.66599)
(-0.0118154 -0.407877 2.69863)
(-0.0474523 -0.426263 2.7355)
(-0.0843613 -0.445216 2.77669)
(-0.122286 -0.461299 2.82224)
(-0.164569 -0.457056 2.87188)
(-0.21328 -0.461697 2.92103)
(-0.276591 -0.498276 2.88093)
(0.286075 -0.307028 2.41104)
(0.421991 -0.196032 2.34938)
(0.187039 -0.413281 2.58645)
(0.17544 -0.396844 2.60583)
(0.158748 -0.391848 2.62871)
(0.137708 -0.394714 2.65516)
(0.11008 -0.404063 2.68545)
(0.0775269 -0.41634 2.71973)
(0.0431086 -0.433568 2.75823)
(0.00858769 -0.451193 2.8011)
(-0.0254641 -0.465841 2.84839)
(-0.0625954 -0.458492 2.89991)
(-0.103172 -0.46559 2.9508)
(-0.169466 -0.506936 2.90392)
(0.366904 -0.328455 2.41908)
(0.495438 -0.223817 2.34914)
(0.281472 -0.41933 2.60616)
(0.267655 -0.403713 2.62631)
(0.248674 -0.398512 2.64972)
(0.226191 -0.401071 2.67649)
(0.197917 -0.409973 2.70693)
(0.165708 -0.421483 2.74126)
(0.132609 -0.437837 2.77968)
(0.10063 -0.454375 2.82241)
(0.0705878 -0.467766 2.86949)
(0.0386493 -0.45726 2.92076)
(0.00614147 -0.466802 2.97113)
(-0.0644086 -0.512233 2.91858)
(0.444048 -0.343574 2.43434)
(0.565513 -0.245408 2.36081)
(0.373922 -0.416948 2.63199)
(0.355493 -0.401323 2.65246)
(0.333806 -0.396839 2.67568)
(0.309675 -0.39979 2.70182)
(0.280906 -0.409055 2.73126)
(0.24942 -0.420561 2.76436)
(0.218121 -0.436716 2.80136)
(0.189219 -0.452719 2.84254)
(0.163706 -0.465246 2.88795)
(0.137481 -0.451702 2.9375)
(0.113677 -0.463871 2.986)
(0.0386698 -0.513043 2.92841)
(0.513559 -0.348871 2.45363)
(0.627199 -0.258902 2.37944)
(0.461644 -0.404153 2.65966)
(0.438667 -0.38944 2.67988)
(0.41365 -0.385642 2.70239)
(0.38741 -0.389076 2.72745)
(0.357799 -0.39887 2.75539)
(0.326865 -0.41063 2.78661)
(0.297356 -0.42692 2.82139)
(0.271658 -0.442789 2.8601)
(0.250974 -0.454859 2.90286)
(0.231032 -0.438715 2.9497)
(0.216866 -0.454028 2.99559)
(0.138532 -0.507343 2.93401)
(0.56958 -0.339624 2.4764)
(0.673022 -0.259896 2.40626)
(0.537687 -0.377101 2.69027)
(0.511986 -0.365372 2.70867)
(0.484313 -0.36304 2.72907)
(0.456377 -0.367419 2.75166)
(0.426061 -0.377886 2.77675)
(0.395644 -0.389908 2.80481)
(0.367848 -0.406277 2.83609)
(0.345252 -0.422085 2.87104)
(0.329322 -0.43388 2.90984)
(0.315696 -0.415798 2.95262)
(0.311288 -0.434935 2.99469)
(0.231184 -0.493289 2.93065)
(0.612476 -0.314792 2.50001)
(0.705375 -0.245148 2.43529)
(0.600233 -0.333387 2.71789)
(0.570318 -0.323948 2.7338)
(0.540465 -0.324248 2.75098)
(0.511195 -0.330345 2.76964)
(0.480657 -0.342222 2.79023)
(0.451135 -0.355221 2.81332)
(0.425252 -0.372179 2.83922)
(0.405695 -0.388406 2.86834)
(0.394165 -0.400401 2.90096)
(0.386266 -0.381326 2.93721)
(0.390669 -0.404777 2.97289)
(0.310123 -0.468786 2.90792)
(0.635873 -0.269876 2.51926)
(0.717738 -0.211895 2.45844)
(0.644641 -0.271661 2.73334)
(0.61124 -0.265794 2.74662)
(0.57947 -0.269373 2.76003)
(0.549171 -0.277895 2.77405)
(0.518661 -0.291839 2.78922)
(0.490178 -0.306462 2.80613)
(0.466194 -0.324593 2.82513)
(0.449504 -0.341753 2.84665)
(0.441992 -0.354446 2.87099)
(0.439284 -0.335094 2.89832)
(0.45164 -0.36276 2.92496)
(0.371971 -0.432143 2.86057)
(0.634488 -0.202703 2.52823)
(0.704712 -0.158805 2.47138)
(0.666904 -0.191643 2.73282)
(0.632295 -0.191798 2.74305)
(0.599539 -0.199772 2.75227)
(0.569033 -0.211895 2.76121)
(0.539105 -0.228781 2.77048)
(0.512017 -0.245624 2.78067)
(0.490166 -0.265359 2.79216)
(0.476498 -0.283727 2.80533)
(0.473023 -0.297313 2.8205)
(0.475412 -0.277939 2.83784)
(0.495407 -0.309302 2.85418)
(0.41802 -0.383237 2.79188)
(0.61253 -0.118509 2.51835)
(0.671282 -0.0902768 2.46428)
(0.670512 -0.0973858 2.70965)
(0.635313 -0.104107 2.71722)
(0.602341 -0.117314 2.72269)
(0.572356 -0.134016 2.72697)
(0.543667 -0.154762 2.73072)
(0.518561 -0.174649 2.73459)
(0.499321 -0.196534 2.73903)
(0.489044 -0.216337 2.74432)
(0.489893 -0.230807 2.75082)
(0.497562 -0.21125 2.75865)
(0.525275 -0.245567 2.76509)
(0.451429 -0.323165 2.70592)
(0.576026 -0.0224101 2.48335)
(0.623623 -0.0110754 2.42969)
(0.661298 0.00633174 2.66048)
(0.626166 -0.00786131 2.66583)
(0.593186 -0.0266313 2.6684)
(0.563937 -0.0482168 2.66914)
(0.536686 -0.0731409 2.66865)
(0.513857 -0.0964187 2.66766)
(0.497494 -0.120721 2.66658)
(0.490909 -0.142082 2.6657)
(0.496436 -0.157378 2.66539)
(0.509752 -0.137355 2.66577)
(0.545554 -0.1739 2.66453)
(0.476148 -0.254488 2.60824)
(0.532681 0.0806113 2.4224)
(0.568821 0.0752989 2.36831)
(0.645093 0.116707 2.5897)
(0.610381 0.0945954 2.59296)