/*--------------------------------*- C++ -*----------------------------------*\
| =========                 |                                                 |
| \\      /  F ield         | OpenFOAM: The Open Source CFD Toolbox           |
|  \\    /   O peration     | Version:  5.x                                   |
|   \\  /    A nd           | Web:      www.OpenFOAM.org                      |
|    \\/     M anipulation  |                                                 |
\*---------------------------------------------------------------------------*/
/*   Windows 32 and 64 bit porting by blueCAPE: http://www.bluecape.com.pt   *\
|  Based on Windows porting (2.0.x v4) by Symscape: http://www.symscape.com   |
\*---------------------------------------------------------------------------*/
FoamFile
{
    version     2.0;
    format      ascii;
    class       volScalarField;
    location    "0.1";
    object      p;
}
// * * * * * * * * * * * * * * * * * * * * * * * * * * * * * * * * * * * * * //

dimensions      [0 2 -2 0 0 0 0];

internalField   nonuniform List<scalar> 
141075
(
1.13901e-006
1.1405e-006
1.14112e-006
1.1417e-006
1.14208e-006
1.14229e-006
1.14238e-006
1.1424e-006
1.14236e-006
1.14227e-006
1.14213e-006
1.14188e-006
1.14144e-006
1.14065e-006
3.47134e-006
3.47277e-006
3.47339e-006
3.47384e-006
3.47402e-006
3.47394e-006
3.47364e-006
3.47317e-006
3.47258e-006
3.47188e-006
3.47107e-006
3.47013e-006
3.46902e-006
3.46787e-006
5.86651e-006
5.86587e-006
5.8649e-006
5.86398e-006
5.8629e-006
5.8616e-006
5.86008e-006
5.85836e-006
5.85648e-006
5.85447e-006
5.8524e-006
5.85035e-006
5.84844e-006
5.84706e-006
8.27397e-006
8.27289e-006
8.27115e-006
8.26933e-006
8.2673e-006
8.26498e-006
8.26238e-006
8.25954e-006
8.25652e-006
8.2534e-006
8.25034e-006
8.24739e-006
8.24474e-006
8.2429e-006
1.06959e-005
1.06946e-005
1.06923e-005
1.06899e-005
1.06872e-005
1.06841e-005
1.06807e-005
1.0677e-005
1.0673e-005
1.0669e-005
1.06649e-005
1.06611e-005
1.06576e-005
1.06553e-005
1.31372e-005
1.31356e-005
1.31329e-005
1.31299e-005
1.31266e-005
1.31228e-005
1.31185e-005
1.31139e-005
1.31091e-005
1.31042e-005
1.30993e-005
1.30946e-005
1.30904e-005
1.30876e-005
1.56022e-005
1.56003e-005
1.55971e-005
1.55937e-005
1.55898e-005
1.55853e-005
1.55803e-005
1.5575e-005
1.55693e-005
1.55635e-005
1.55578e-005
1.55523e-005
1.55475e-005
1.55441e-005
1.80946e-005
1.80924e-005
1.80888e-005
1.80848e-005
1.80804e-005
1.80753e-005
1.80697e-005
1.80636e-005
1.80571e-005
1.80506e-005
1.80441e-005
1.80379e-005
1.80324e-005
1.80286e-005
2.0618e-005
2.06155e-005
2.06114e-005
2.0607e-005
2.0602e-005
2.05963e-005
2.05901e-005
2.05833e-005
2.05762e-005
2.05689e-005
2.05617e-005
2.05548e-005
2.05488e-005
2.05445e-005
2.31756e-005
2.31728e-005
2.31683e-005
2.31634e-005
2.31579e-005
2.31517e-005
2.31448e-005
2.31374e-005
2.31296e-005
2.31217e-005
2.31138e-005
2.31064e-005
2.30998e-005
2.30952e-005
2.57704e-005
2.57673e-005
2.57624e-005
2.57571e-005
2.57511e-005
2.57443e-005
2.57369e-005
2.57289e-005
2.57205e-005
2.57119e-005
2.57035e-005
2.56955e-005
2.56885e-005
2.56836e-005
2.8405e-005
2.84017e-005
2.83964e-005
2.83906e-005
2.83842e-005
2.8377e-005
2.8369e-005
2.83605e-005
2.83516e-005
2.83425e-005
2.83335e-005
2.8325e-005
2.83176e-005
2.83125e-005
3.10818e-005
3.10782e-005
3.10725e-005
3.10664e-005
3.10596e-005
3.10519e-005
3.10435e-005
3.10345e-005
3.10251e-005
3.10156e-005
3.10062e-005
3.09973e-005
3.09897e-005
3.09844e-005
3.38026e-005
3.37988e-005
3.37927e-005
3.37863e-005
3.37791e-005
3.3771e-005
3.37622e-005
3.37528e-005
3.3743e-005
3.37331e-005
3.37233e-005
3.37142e-005
3.37064e-005
3.3701e-005
3.6569e-005
3.6565e-005
3.65586e-005
3.65518e-005
3.65443e-005
3.65359e-005
3.65267e-005
3.65169e-005
3.65068e-005
3.64965e-005
3.64864e-005
3.6477e-005
3.6469e-005
3.64636e-005
3.93823e-005
3.93782e-005
3.93715e-005
3.93645e-005
3.93567e-005
3.93479e-005
3.93384e-005
3.93283e-005
3.93178e-005
3.93073e-005
3.92969e-005
3.92872e-005
3.92791e-005
3.92736e-005
4.22434e-005
4.22391e-005
4.22322e-005
4.22249e-005
4.22169e-005
4.22079e-005
4.21982e-005
4.21878e-005
4.21771e-005
4.21663e-005
4.21558e-005
4.21459e-005
4.21377e-005
4.21322e-005
4.51526e-005
4.51481e-005
4.51411e-005
4.51336e-005
4.51254e-005
4.51163e-005
4.51063e-005
4.50959e-005
4.5085e-005
4.50741e-005
4.50635e-005
4.50536e-005
4.50453e-005
4.50398e-005
4.81098e-005
4.81053e-005
4.80981e-005
4.80905e-005
4.80822e-005
4.8073e-005
4.8063e-005
4.80524e-005
4.80415e-005
4.80306e-005
4.802e-005
4.801e-005
4.80018e-005
4.79963e-005
5.1115e-005
5.11104e-005
5.11031e-005
5.10954e-005
5.1087e-005
5.10777e-005
5.10677e-005
5.10571e-005
5.10462e-005
5.10353e-005
5.10247e-005
5.10148e-005
5.10065e-005
5.1001e-005
5.41672e-005
5.41626e-005
5.41552e-005
5.41475e-005
5.41391e-005
5.41298e-005
5.41198e-005
5.41093e-005
5.40985e-005
5.40876e-005
5.4077e-005
5.40671e-005
5.40589e-005
5.40532e-005
5.72656e-005
5.7261e-005
5.72536e-005
5.72459e-005
5.72375e-005
5.72283e-005
5.72183e-005
5.72079e-005
5.71971e-005
5.71864e-005
5.71759e-005
5.71661e-005
5.71578e-005
5.71522e-005
6.04087e-005
6.0404e-005
6.03966e-005
6.0389e-005
6.03806e-005
6.03715e-005
6.03616e-005
6.03513e-005
6.03407e-005
6.03302e-005
6.03199e-005
6.03102e-005
6.0302e-005
6.02964e-005
6.35946e-005
6.35899e-005
6.35825e-005
6.35749e-005
6.35666e-005
6.35576e-005
6.35479e-005
6.35378e-005
6.35274e-005
6.35171e-005
6.3507e-005
6.34975e-005
6.34895e-005
6.3484e-005
6.68212e-005
6.68165e-005
6.68091e-005
6.68015e-005
6.67934e-005
6.67845e-005
6.6775e-005
6.67651e-005
6.6755e-005
6.67449e-005
6.67351e-005
6.67259e-005
6.67181e-005
6.67128e-005
7.0086e-005
7.00813e-005
7.00739e-005
7.00664e-005
7.00584e-005
7.00497e-005
7.00404e-005
7.00308e-005
7.0021e-005
7.00112e-005
7.00017e-005
6.99928e-005
6.99852e-005
6.99801e-005
7.33862e-005
7.33815e-005
7.33742e-005
7.33668e-005
7.33589e-005
7.33504e-005
7.33414e-005
7.33321e-005
7.33226e-005
7.33132e-005
7.3304e-005
7.32954e-005
7.3288e-005
7.3283e-005
7.67187e-005
7.67141e-005
7.67069e-005
7.66996e-005
7.6692e-005
7.66838e-005
7.66751e-005
7.66661e-005
7.6657e-005
7.6648e-005
7.66392e-005
7.66308e-005
7.66236e-005
7.66186e-005
8.00805e-005
8.00759e-005
8.00689e-005
8.00618e-005
8.00544e-005
8.00464e-005
8.00381e-005
8.00295e-005
8.00208e-005
8.00122e-005
8.00037e-005
7.99957e-005
7.99885e-005
7.99834e-005
8.34683e-005
8.34637e-005
8.34568e-005
8.34499e-005
8.34427e-005
8.34351e-005
8.34271e-005
8.34188e-005
8.34105e-005
8.34023e-005
8.33942e-005
8.33865e-005
8.33794e-005
8.33742e-005
8.68788e-005
8.68743e-005
8.68674e-005
8.68606e-005
8.68536e-005
8.68462e-005
8.68385e-005
8.68307e-005
8.68227e-005
8.68148e-005
8.68071e-005
8.67997e-005
8.67928e-005
8.67876e-005
9.03088e-005
9.03043e-005
9.02974e-005
9.02907e-005
9.02838e-005
9.02766e-005
9.02692e-005
9.02616e-005
9.0254e-005
9.02464e-005
9.0239e-005
9.02318e-005
9.02251e-005
9.02199e-005
9.37549e-005
9.37502e-005
9.37434e-005
9.37366e-005
9.37298e-005
9.37228e-005
9.37156e-005
9.37083e-005
9.37009e-005
9.36936e-005
9.36866e-005
9.36796e-005
9.36731e-005
9.36679e-005
9.72135e-005
9.72088e-005
9.72018e-005
9.7195e-005
9.71883e-005
9.71814e-005
9.71743e-005
9.71672e-005
9.71601e-005
9.71531e-005
9.71463e-005
9.71396e-005
9.71331e-005
9.7128e-005
0.000100681
0.000100676
0.000100669
0.000100662
0.000100656
0.000100649
0.000100642
0.000100635
0.000100628
0.000100621
0.000100615
0.000100608
0.000100602
0.000100596
0.000104154
0.000104149
0.000104142
0.000104135
0.000104128
0.000104122
0.000104115
0.000104108
0.000104101
0.000104095
0.000104088
0.000104082
0.000104075
0.00010407
0.00010763
0.000107625
0.000107617
0.00010761
0.000107603
0.000107596
0.00010759
0.000107583
0.000107576
0.00010757
0.000107563
0.000107557
0.00010755
0.000107545
0.000111104
0.000111099
0.000111091
0.000111084
0.000111077
0.00011107
0.000111063
0.000111056
0.000111049
0.000111043
0.000111036
0.00011103
0.000111023
0.000111018
0.000114574
0.000114569
0.000114561
0.000114553
0.000114546
0.000114539
0.000114532
0.000114525
0.000114518
0.000114511
0.000114505
0.000114498
0.000114491
0.000114485
0.000118038
0.000118032
0.000118023
0.000118015
0.000118007
0.000118
0.000117993
0.000117986
0.000117979
0.000117972
0.000117965
0.000117958
0.000117951
0.000117945
0.000121491
0.000121484
0.000121475
0.000121466
0.000121458
0.000121451
0.000121443
0.000121436
0.000121428
0.000121421
0.000121414
0.000121407
0.000121399
0.000121393
0.000124931
0.000124924
0.000124914
0.000124905
0.000124897
0.000124888
0.00012488
0.000124873
0.000124865
0.000124857
0.00012485
0.000124842
0.000124834
0.000124827
0.000128357
0.000128349
0.000128339
0.000128329
0.00012832
0.000128311
0.000128302
0.000128294
0.000128286
0.000128278
0.000128269
0.000128261
0.000128252
0.000128244
0.000131765
0.000131757
0.000131746
0.000131735
0.000131725
0.000131716
0.000131707
0.000131698
0.000131689
0.00013168
0.000131671
0.000131662
0.000131652
0.000131644
0.000135156
0.000135147
0.000135135
0.000135123
0.000135112
0.000135102
0.000135092
0.000135082
0.000135072
0.000135063
0.000135053
0.000135043
0.000135032
0.000135022
0.000138526
0.000138517
0.000138503
0.000138491
0.000138479
0.000138468
0.000138457
0.000138446
0.000138435
0.000138424
0.000138414
0.000138402
0.00013839
0.00013838
0.000141876
0.000141866
0.000141851
0.000141837
0.000141825
0.000141812
0.0001418
0.000141788
0.000141776
0.000141764
0.000141752
0.000141739
0.000141726
0.000141714
0.000145204
0.000145193
0.000145177
0.000145162
0.000145148
0.000145134
0.00014512
0.000145107
0.000145094
0.00014508
0.000145067
0.000145053
0.000145037
0.000145024
0.000148509
0.000148498
0.00014848
0.000148463
0.000148448
0.000148433
0.000148418
0.000148403
0.000148388
0.000148373
0.000148357
0.000148342
0.000148325
0.00014831
0.000151792
0.000151779
0.00015176
0.000151742
0.000151725
0.000151708
0.000151691
0.000151674
0.000151657
0.000151641
0.000151623
0.000151606
0.000151587
0.000151571
0.000155052
0.000155038
0.000155017
0.000154997
0.000154978
0.000154959
0.00015494
0.000154921
0.000154902
0.000154884
0.000154864
0.000154845
0.000154824
0.000154806
0.000158288
0.000158273
0.000158249
0.000158227
0.000158206
0.000158185
0.000158164
0.000158143
0.000158122
0.000158101
0.00015808
0.000158058
0.000158035
0.000158015
0.0001615
0.000161483
0.000161457
0.000161433
0.00016141
0.000161386
0.000161363
0.00016134
0.000161316
0.000161293
0.000161269
0.000161244
0.000161219
0.000161197
0.000164687
0.000164668
0.00016464
0.000164613
0.000164588
0.000164562
0.000164536
0.00016451
0.000164484
0.000164458
0.000164431
0.000164404
0.000164376
0.000164352
0.00016785
0.000167829
0.000167798
0.000167769
0.000167741
0.000167712
0.000167684
0.000167655
0.000167626
0.000167596
0.000167566
0.000167536
0.000167506
0.00016748
0.000170988
0.000170966
0.000170932
0.000170899
0.000170868
0.000170837
0.000170805
0.000170773
0.000170741
0.000170708
0.000170675
0.000170641
0.000170608
0.000170579
0.000174102
0.000174078
0.000174041
0.000174005
0.000173971
0.000173936
0.000173901
0.000173866
0.00017383
0.000173793
0.000173756
0.000173719
0.000173682
0.000173651
0.000177194
0.000177167
0.000177127
0.000177088
0.00017705
0.000177012
0.000176973
0.000176933
0.000176893
0.000176853
0.000176812
0.000176771
0.00017673
0.000176696
0.000180264
0.000180235
0.000180191
0.000180148
0.000180106
0.000180064
0.000180021
0.000179977
0.000179932
0.000179887
0.000179842
0.000179797
0.000179752
0.000179715
0.000183314
0.000183282
0.000183234
0.000183187
0.000183141
0.000183094
0.000183047
0.000182998
0.000182949
0.000182899
0.000182849
0.000182798
0.000182749
0.000182708
0.000186345
0.00018631
0.000186258
0.000186206
0.000186156
0.000186105
0.000186052
0.000185998
0.000185944
0.000185888
0.000185833
0.000185777
0.000185723
0.000185678
0.000189357
0.00018932
0.000189263
0.000189206
0.000189151
0.000189095
0.000189037
0.000188978
0.000188918
0.000188857
0.000188796
0.000188735
0.000188675
0.000188626
0.00019235
0.00019231
0.000192247
0.000192186
0.000192126
0.000192065
0.000192002
0.000191937
0.000191871
0.000191805
0.000191738
0.000191671
0.000191605
0.000191552
0.00019532
0.000195276
0.000195209
0.000195143
0.000195078
0.000195011
0.000194943
0.000194873
0.000194802
0.000194729
0.000194657
0.000194584
0.000194513
0.000194455
0.000198262
0.000198215
0.000198141
0.00019807
0.000198
0.000197929
0.000197855
0.000197781
0.000197704
0.000197627
0.000197549
0.000197471
0.000197394
0.000197331
0.000201167
0.000201116
0.000201037
0.00020096
0.000200885
0.000200809
0.000200731
0.000200652
0.000200571
0.000200489
0.000200407
0.000200323
0.000200241
0.000200173
0.000204023
0.000203968
0.000203883
0.0002038
0.00020372
0.00020364
0.000203557
0.000203474
0.000203389
0.000203304
0.000203217
0.00020313
0.000203043
0.000202969
0.000206814
0.000206756
0.000206663
0.000206575
0.00020649
0.000206405
0.000206319
0.000206231
0.000206143
0.000206054
0.000205964
0.000205873
0.00020578
0.000205701
0.000209521
0.000209458
0.000209359
0.000209264
0.000209174
0.000209085
0.000208994
0.000208904
0.000208812
0.00020872
0.000208627
0.000208531
0.000208432
0.000208347
0.000212123
0.000212055
0.000211947
0.000211846
0.000211751
0.000211656
0.000211562
0.000211467
0.000211372
0.000211277
0.00021118
0.00021108
0.000210975
0.000210882
0.0002146
0.000214526
0.000214409
0.0002143
0.000214198
0.000214098
0.000213999
0.0002139
0.000213801
0.000213702
0.000213601
0.000213495
0.000213383
0.000213283
0.000216934
0.000216853
0.000216726
0.000216609
0.0002165
0.000216393
0.000216288
0.000216183
0.000216079
0.000215975
0.000215869
0.000215758
0.000215637
0.000215528
0.000219116
0.000219027
0.000218889
0.000218763
0.000218645
0.000218531
0.000218418
0.000218308
0.000218197
0.000218087
0.000217975
0.000217856
0.000217725
0.000217607
0.000221147
0.000221049
0.000220898
0.000220761
0.000220634
0.000220512
0.000220391
0.000220273
0.000220156
0.000220038
0.000219919
0.000219792
0.00021965
0.000219522
0.000223032
0.000222925
0.00022276
0.000222612
0.000222476
0.000222344
0.000222216
0.00022209
0.000221967
0.000221843
0.000221716
0.000221581
0.000221428
0.000221291
0.000224782
0.000224664
0.000224486
0.000224326
0.000224181
0.000224042
0.000223907
0.000223777
0.00022365
0.000223523
0.000223392
0.000223252
0.00022309
0.000222945
0.000226402
0.000226274
0.000226081
0.000225912
0.000225759
0.000225616
0.000225479
0.00022535
0.000225225
0.000225101
0.000224974
0.000224835
0.000224667
0.000224515
0.000227889
0.00022775
0.000227544
0.000227366
0.00022721
0.000227067
0.000226935
0.000226814
0.0002267
0.00022659
0.000226476
0.000226348
0.000226179
0.00022602
0.000229224
0.000229075
0.000228856
0.000228672
0.000228516
0.000228379
0.000228258
0.000228154
0.000228062
0.000227976
0.000227888
0.00022778
0.000227618
0.000227453
0.000230375
0.000230217
0.000229985
0.000229797
0.000229646
0.000229519
0.000229416
0.000229336
0.000229274
0.000229222
0.000229167
0.000229087
0.000228934
0.000228761
0.000231293
0.000231129
0.000230888
0.0002307
0.000230555
0.000230443
0.000230361
0.00023031
0.000230282
0.000230266
0.000230248
0.000230195
0.000230048
0.000229859
0.000231918
0.000231753
0.000231509
0.000231325
0.000231193
0.000231099
0.000231043
0.000231022
0.000231028
0.000231049
0.000231063
0.000231033
0.000230879
0.00023066
0.000232165
0.000232011
0.000231777
0.00023161
0.000231499
0.000231433
0.000231409
0.000231423
0.000231468
0.000231525
0.00023157
0.000231556
0.000231381
0.000231107
0.000231931
0.000231808
0.000231609
0.000231478
0.000231407
0.000231386
0.000231409
0.000231474
0.000231568
0.000231673
0.000231757
0.000231761
0.000231552
0.000231195
0.000231096
0.000231038
0.000230915
0.000230856
0.000230854
0.000230907
0.000231006
0.000231147
0.000231318
0.000231496
0.000231642
0.000231681
0.00023143
0.000230946
0.000229533
0.000229596
0.000229614
0.000229679
0.000229794
0.000229967
0.000230185
0.000230445
0.000230732
0.000231021
0.000231267
0.000231368
0.000231065
0.00023039
0.000227123
0.000227387
0.000227637
0.000227902
0.0002282
0.000228558
0.000228957
0.000229392
0.00022985
0.000230303
0.000230695
0.000230892
0.000230521
0.000229557
0.000223773
0.000224344
0.000224949
0.00022551
0.000226074
0.000226697
0.000227351
0.000228031
0.000228724
0.000229402
0.000229999
0.000230333
0.000229869
0.000228487
0.000219473
0.000220476
0.000221578
0.000222546
0.000223465
0.000224438
0.000225423
0.000226416
0.000227411
0.00022838
0.000229246
0.000229764
0.000229182
0.000227231
0.000214357
0.00021593
0.000217677
0.000219157
0.000220513
0.00022191
0.00022329
0.000224651
0.000225998
0.000227313
0.000228506
0.000229258
0.000228538
0.000225864
0.000208766
0.000211027
0.000213543
0.000215618
0.000217469
0.000219338
0.000221148
0.000222905
0.000224629
0.000226318
0.000227878
0.000228901
0.000228023
0.000224495
0.00020325
0.00020626
0.000209604
0.000212303
0.000214663
0.00021701
0.000219247
0.000221388
0.000223475
0.000225527
0.000227447
0.00022874
0.000227679
0.000223214
0.000198553
0.000202271
0.000206384
0.000209652
0.000212465
0.000215234
0.00021784
0.000220305
0.000222689
0.000225034
0.000227243
0.000228738
0.000227451
0.000222059
0.000195517
0.000199763
0.000204439
0.00020811
0.000211233
0.000214289
0.000217136
0.000219802
0.000222362
0.00022487
0.00022723
0.000228801
0.000227261
0.000221105
0.000194883
0.00019933
0.000204205
0.000208007
0.000211223
0.000214361
0.000217267
0.000219963
0.000222528
0.000225023
0.000227349
0.000228844
0.00022708
0.000220525
0.000196929
0.000201136
0.000205739
0.000209344
0.000212407
0.000215411
0.000218189
0.000220749
0.000223156
0.000225463
0.00022757
0.000228838
0.000226941
0.000220511
0.000201301
0.000204824
0.000208702
0.000211827
0.000214551
0.000217253
0.000219775
0.000222099
0.000224255
0.000226265
0.000228021
0.000228944
0.000227021
0.000221269
0.000206593
0.000209104
0.000211986
0.000214493
0.000216814
0.000219179
0.000221442
0.000223555
0.000225503
0.000227254
0.000228668
0.000229242
0.00022742
0.000222782
0.000211132
0.000212719
0.000214827
0.000216988
0.000219197
0.00022148
0.000223713
0.000225812
0.000227702
0.000229287
0.000230391
0.000230575
0.000228769
0.000225217
1.13866e-006
1.14036e-006
1.14117e-006
1.14176e-006
1.1421e-006
1.14226e-006
1.14229e-006
1.14224e-006
1.14214e-006
1.14199e-006
1.14178e-006
1.14147e-006
1.14096e-006
1.14011e-006
3.47074e-006
3.47233e-006
3.47301e-006
3.47345e-006
3.47358e-006
3.47343e-006
3.47306e-006
3.47252e-006
3.47186e-006
3.47109e-006
3.47022e-006
3.46923e-006
3.46807e-006
3.46681e-006
5.86686e-006
5.86619e-006
5.86523e-006
5.86427e-006
5.86313e-006
5.86176e-006
5.86015e-006
5.85835e-006
5.85638e-006
5.85429e-006
5.85214e-006
5.84999e-006
5.84793e-006
5.8463e-006
8.27481e-006
8.27373e-006
8.27198e-006
8.27008e-006
8.26793e-006
8.2655e-006
8.26279e-006
8.25986e-006
8.25677e-006
8.25358e-006
8.25033e-006
8.2472e-006
8.24429e-006
8.24207e-006
1.06973e-005
1.06959e-005
1.06936e-005
1.06911e-005
1.06882e-005
1.0685e-005
1.06814e-005
1.06775e-005
1.06734e-005
1.06692e-005
1.06651e-005
1.06611e-005
1.06573e-005
1.06544e-005
1.31389e-005
1.31372e-005
1.31344e-005
1.31314e-005
1.31278e-005
1.31238e-005
1.31194e-005
1.31146e-005
1.31096e-005
1.31045e-005
1.30995e-005
1.30946e-005
1.30901e-005
1.30866e-005
1.56041e-005
1.56021e-005
1.55989e-005
1.55953e-005
1.55912e-005
1.55865e-005
1.55813e-005
1.55758e-005
1.55699e-005
1.55639e-005
1.5558e-005
1.55523e-005
1.55471e-005
1.5543e-005
1.80967e-005
1.80944e-005
1.80908e-005
1.80867e-005
1.8082e-005
1.80766e-005
1.80707e-005
1.80644e-005
1.80578e-005
1.8051e-005
1.80443e-005
1.80379e-005
1.8032e-005
1.80275e-005
2.06202e-005
2.06176e-005
2.06135e-005
2.06089e-005
2.06037e-005
2.05977e-005
2.05912e-005
2.05842e-005
2.05768e-005
2.05693e-005
2.05619e-005
2.05548e-005
2.05484e-005
2.05435e-005
2.31779e-005
2.3175e-005
2.31705e-005
2.31654e-005
2.31597e-005
2.31531e-005
2.3146e-005
2.31383e-005
2.31302e-005
2.31221e-005
2.3114e-005
2.31064e-005
2.30995e-005
2.30943e-005
2.57727e-005
2.57696e-005
2.57646e-005
2.57591e-005
2.57529e-005
2.57458e-005
2.5738e-005
2.57297e-005
2.57211e-005
2.57123e-005
2.57037e-005
2.56956e-005
2.56884e-005
2.56829e-005
2.84073e-005
2.84039e-005
2.83986e-005
2.83927e-005
2.8386e-005
2.83784e-005
2.83701e-005
2.83612e-005
2.8352e-005
2.83427e-005
2.83336e-005
2.83251e-005
2.83176e-005
2.8312e-005
3.1084e-005
3.10804e-005
3.10747e-005
3.10684e-005
3.10612e-005
3.10532e-005
3.10444e-005
3.10351e-005
3.10254e-005
3.10157e-005
3.10062e-005
3.09973e-005
3.09897e-005
3.09839e-005
3.38046e-005
3.38008e-005
3.37947e-005
3.37881e-005
3.37806e-005
3.37721e-005
3.37629e-005
3.37532e-005
3.37431e-005
3.37329e-005
3.37231e-005
3.37141e-005
3.37063e-005
3.37005e-005
3.65708e-005
3.65668e-005
3.65604e-005
3.65534e-005
3.65456e-005
3.65368e-005
3.65272e-005
3.65171e-005
3.65067e-005
3.64962e-005
3.64861e-005
3.64768e-005
3.6469e-005
3.64632e-005
3.93838e-005
3.93796e-005
3.9373e-005
3.93658e-005
3.93576e-005
3.93486e-005
3.93387e-005
3.93282e-005
3.93175e-005
3.93067e-005
3.92964e-005
3.92869e-005
3.9279e-005
3.92731e-005
4.22445e-005
4.22401e-005
4.22333e-005
4.22259e-005
4.22175e-005
4.22082e-005
4.21981e-005
4.21874e-005
4.21764e-005
4.21654e-005
4.21549e-005
4.21453e-005
4.21374e-005
4.21316e-005
4.51531e-005
4.51487e-005
4.51417e-005
4.51341e-005
4.51256e-005
4.51161e-005
4.51058e-005
4.5095e-005
4.50838e-005
4.50728e-005
4.50622e-005
4.50526e-005
4.50447e-005
4.5039e-005
4.81098e-005
4.81053e-005
4.80982e-005
4.80904e-005
4.80818e-005
4.80723e-005
4.80619e-005
4.8051e-005
4.80398e-005
4.80287e-005
4.80181e-005
4.80086e-005
4.80007e-005
4.79951e-005
5.11142e-005
5.11096e-005
5.11025e-005
5.10947e-005
5.1086e-005
5.10764e-005
5.1066e-005
5.10551e-005
5.10439e-005
5.10328e-005
5.10222e-005
5.10127e-005
5.1005e-005
5.09993e-005
5.41657e-005
5.41611e-005
5.41539e-005
5.41461e-005
5.41375e-005
5.41279e-005
5.41175e-005
5.41066e-005
5.40955e-005
5.40844e-005
5.40739e-005
5.40644e-005
5.40567e-005
5.40511e-005
5.72633e-005
5.72587e-005
5.72515e-005
5.72437e-005
5.72351e-005
5.72256e-005
5.72153e-005
5.72045e-005
5.71935e-005
5.71825e-005
5.71721e-005
5.71627e-005
5.71551e-005
5.71494e-005
6.04054e-005
6.04008e-005
6.03937e-005
6.03859e-005
6.03774e-005
6.0368e-005
6.03579e-005
6.03473e-005
6.03364e-005
6.03256e-005
6.03154e-005
6.03061e-005
6.02986e-005
6.0293e-005
6.35904e-005
6.35858e-005
6.35787e-005
6.3571e-005
6.35626e-005
6.35534e-005
6.35434e-005
6.3533e-005
6.35224e-005
6.35119e-005
6.35019e-005
6.34929e-005
6.34855e-005
6.348e-005
6.6816e-005
6.68114e-005
6.68043e-005
6.67967e-005
6.67885e-005
6.67794e-005
6.67697e-005
6.67596e-005
6.67493e-005
6.67391e-005
6.67294e-005
6.67207e-005
6.67134e-005
6.6708e-005
7.00798e-005
7.00752e-005
7.00681e-005
7.00607e-005
7.00526e-005
7.00438e-005
7.00344e-005
7.00245e-005
7.00145e-005
7.00047e-005
6.99954e-005
6.99869e-005
6.99798e-005
6.99745e-005
7.33788e-005
7.33743e-005
7.33673e-005
7.336e-005
7.33521e-005
7.33436e-005
7.33345e-005
7.3325e-005
7.33154e-005
7.33059e-005
7.32969e-005
7.32887e-005
7.32817e-005
7.32765e-005
7.67102e-005
7.67057e-005
7.66989e-005
7.66917e-005
7.66841e-005
7.66759e-005
7.66671e-005
7.66581e-005
7.66488e-005
7.66398e-005
7.66311e-005
7.66231e-005
7.66162e-005
7.66109e-005
8.00707e-005
8.00663e-005
8.00596e-005
8.00527e-005
8.00453e-005
8.00374e-005
8.00291e-005
8.00204e-005
8.00116e-005
8.00029e-005
7.99945e-005
7.99868e-005
7.99799e-005
7.99747e-005
8.34572e-005
8.34528e-005
8.34462e-005
8.34395e-005
8.34325e-005
8.34249e-005
8.34169e-005
8.34086e-005
8.34002e-005
8.33919e-005
8.33839e-005
8.33764e-005
8.33696e-005
8.33643e-005
8.68663e-005
8.6862e-005
8.68556e-005
8.6849e-005
8.68422e-005
8.68349e-005
8.68272e-005
8.68193e-005
8.68113e-005
8.68034e-005
8.67957e-005
8.67885e-005
8.67818e-005
8.67766e-005
9.02949e-005
9.02906e-005
9.02842e-005
9.02777e-005
9.02711e-005
9.02641e-005
9.02567e-005
9.02491e-005
9.02415e-005
9.02339e-005
9.02266e-005
9.02196e-005
9.02131e-005
9.02079e-005
9.37394e-005
9.37351e-005
9.37287e-005
9.37223e-005
9.37158e-005
9.3709e-005
9.37019e-005
9.36947e-005
9.36873e-005
9.36801e-005
9.36731e-005
9.36664e-005
9.366e-005
9.36549e-005
9.71964e-005
9.7192e-005
9.71855e-005
9.71792e-005
9.71728e-005
9.71662e-005
9.71594e-005
9.71524e-005
9.71454e-005
9.71385e-005
9.71318e-005
9.71253e-005
9.7119e-005
9.71139e-005
0.000100662
0.000100658
0.000100651
0.000100645
0.000100639
0.000100632
0.000100626
0.000100619
0.000100612
0.000100605
0.000100599
0.000100593
0.000100586
0.000100581
0.000104134
0.000104129
0.000104122
0.000104116
0.00010411
0.000104103
0.000104097
0.00010409
0.000104084
0.000104078
0.000104071
0.000104065
0.000104059
0.000104053
0.000107607
0.000107602
0.000107596
0.000107589
0.000107583
0.000107576
0.00010757
0.000107564
0.000107557
0.000107551
0.000107545
0.000107539
0.000107532
0.000107527
0.000111079
0.000111074
0.000111067
0.000111061
0.000111054
0.000111048
0.000111042
0.000111035
0.000111029
0.000111023
0.000111017
0.000111011
0.000111004
0.000110998
0.000114547
0.000114542
0.000114535
0.000114528
0.000114521
0.000114515
0.000114509
0.000114502
0.000114496
0.00011449
0.000114484
0.000114477
0.00011447
0.000114464
0.000118008
0.000118002
0.000117995
0.000117987
0.000117981
0.000117974
0.000117968
0.000117961
0.000117955
0.000117949
0.000117942
0.000117936
0.000117928
0.000117922
0.000121458
0.000121452
0.000121444
0.000121436
0.000121429
0.000121422
0.000121416
0.000121409
0.000121403
0.000121396
0.00012139
0.000121383
0.000121375
0.000121368
0.000124896
0.000124889
0.000124881
0.000124872
0.000124865
0.000124858
0.00012485
0.000124843
0.000124837
0.00012483
0.000124823
0.000124815
0.000124807
0.0001248
0.000128318
0.000128311
0.000128302
0.000128293
0.000128285
0.000128277
0.000128269
0.000128262
0.000128255
0.000128247
0.00012824
0.000128232
0.000128223
0.000128215
0.000131723
0.000131716
0.000131705
0.000131696
0.000131687
0.000131679
0.000131671
0.000131663
0.000131655
0.000131647
0.000131639
0.00013163
0.00013162
0.000131611
0.000135109
0.000135101
0.00013509
0.00013508
0.00013507
0.000135061
0.000135052
0.000135043
0.000135035
0.000135026
0.000135017
0.000135008
0.000134997
0.000134987
0.000138474
0.000138466
0.000138454
0.000138443
0.000138432
0.000138422
0.000138413
0.000138403
0.000138393
0.000138384
0.000138374
0.000138363
0.000138352
0.000138341
0.000141818
0.000141809
0.000141796
0.000141784
0.000141773
0.000141762
0.000141751
0.00014174
0.00014173
0.000141719
0.000141708
0.000141696
0.000141683
0.000141671
0.00014514
0.00014513
0.000145116
0.000145102
0.00014509
0.000145078
0.000145066
0.000145054
0.000145042
0.00014503
0.000145018
0.000145005
0.00014499
0.000144977
0.000148438
0.000148427
0.000148412
0.000148397
0.000148383
0.00014837
0.000148356
0.000148343
0.00014833
0.000148317
0.000148303
0.000148289
0.000148273
0.000148258
0.000151713
0.000151701
0.000151684
0.000151668
0.000151652
0.000151637
0.000151622
0.000151608
0.000151593
0.000151578
0.000151563
0.000151547
0.000151529
0.000151514
0.000154963
0.00015495
0.000154931
0.000154913
0.000154896
0.00015488
0.000154863
0.000154847
0.00015483
0.000154813
0.000154796
0.000154779
0.00015476
0.000154743
0.000158189
0.000158174
0.000158154
0.000158134
0.000158115
0.000158096
0.000158078
0.000158059
0.000158041
0.000158022
0.000158004
0.000157984
0.000157964
0.000157946
0.000161389
0.000161373
0.00016135
0.000161328
0.000161307
0.000161287
0.000161266
0.000161246
0.000161225
0.000161204
0.000161184
0.000161163
0.000161141
0.000161121
0.000164563
0.000164546
0.000164521
0.000164497
0.000164474
0.000164451
0.000164428
0.000164405
0.000164382
0.000164359
0.000164336
0.000164313
0.00016429
0.000164269
0.000167712
0.000167693
0.000167665
0.000167639
0.000167613
0.000167588
0.000167563
0.000167537
0.000167512
0.000167486
0.000167461
0.000167436
0.00016741
0.000167388
0.000170835
0.000170814
0.000170784
0.000170755
0.000170727
0.000170699
0.00017067
0.000170642
0.000170614
0.000170586
0.000170558
0.000170531
0.000170503
0.000170479
0.000173933
0.000173911
0.000173877
0.000173845
0.000173814
0.000173783
0.000173752
0.000173721
0.000173689
0.000173658
0.000173628
0.000173597
0.000173567
0.000173541
0.000177007
0.000176982
0.000176946
0.000176911
0.000176877
0.000176842
0.000176808
0.000176773
0.000176738
0.000176704
0.00017667
0.000176637
0.000176604
0.000176576
0.000180057
0.000180031
0.000179991
0.000179952
0.000179915
0.000179877
0.000179839
0.0001798
0.000179762
0.000179723
0.000179686
0.000179649
0.000179614
0.000179583
0.000183086
0.000183057
0.000183014
0.000182971
0.00018293
0.000182888
0.000182846
0.000182803
0.000182761
0.000182719
0.000182677
0.000182637
0.000182598
0.000182565
0.000186094
0.000186063
0.000186015
0.000185969
0.000185923
0.000185878
0.000185831
0.000185784
0.000185737
0.00018569
0.000185645
0.0001856
0.000185557
0.000185521
0.000189081
0.000189047
0.000188995
0.000188945
0.000188895
0.000188845
0.000188794
0.000188742
0.00018869
0.000188639
0.000188589
0.000188541
0.000188494
0.000188454
0.000192048
0.00019201
0.000191954
0.000191899
0.000191845
0.00019179
0.000191734
0.000191678
0.000191621
0.000191565
0.000191511
0.000191458
0.000191407
0.000191364
0.00019499
0.00019495
0.000194889
0.000194829
0.00019477
0.000194711
0.00019465
0.000194589
0.000194527
0.000194467
0.000194408
0.000194351
0.000194296
0.00019425
0.000197904
0.00019786
0.000197794
0.000197729
0.000197666
0.000197602
0.000197537
0.000197471
0.000197405
0.00019734
0.000197277
0.000197216
0.000197157
0.000197108
0.000200781
0.000200734
0.000200663
0.000200593
0.000200525
0.000200457
0.000200387
0.000200317
0.000200247
0.000200177
0.00020011
0.000200046
0.000199983
0.000199931
0.000203612
0.000203562
0.000203484
0.00020341
0.000203337
0.000203264
0.00020319
0.000203115
0.000203041
0.000202968
0.000202898
0.000202829
0.000202763
0.000202706
0.000206381
0.000206327
0.000206244
0.000206164
0.000206086
0.000206008
0.00020593
0.000205852
0.000205774
0.000205697
0.000205623
0.000205551
0.00020548
0.000205419
0.000209071
0.000209013
0.000208923
0.000208837
0.000208754
0.000208672
0.000208589
0.000208507
0.000208425
0.000208345
0.000208267
0.00020819
0.000208114