/*--------------------------------*- C++ -*----------------------------------*\
| =========                 |                                                 |
| \\      /  F ield         | OpenFOAM: The Open Source CFD Toolbox           |
|  \\    /   O peration     | Version:  5.x                                   |
|   \\  /    A nd           | Web:      www.OpenFOAM.org                      |
|    \\/     M anipulation  |                                                 |
\*---------------------------------------------------------------------------*/
/*   Windows 32 and 64 bit porting by blueCAPE: http://www.bluecape.com.pt   *\
|  Based on Windows porting (2.0.x v4) by Symscape: http://www.symscape.com   |
\*---------------------------------------------------------------------------*/
FoamFile
{
    version     2.0;
    format      ascii;
    class       volScalarField;
    location    "1.7";
    object      p;
}
// * * * * * * * * * * * * * * * * * * * * * * * * * * * * * * * * * * * * * //

dimensions      [0 2 -2 0 0 0 0];

internalField   nonuniform List<scalar> 
141075
(
-1.30166e-006
-1.30308e-006
-1.30398e-006
-1.30482e-006
-1.30552e-006
-1.30611e-006
-1.30665e-006
-1.30715e-006
-1.3076e-006
-1.30801e-006
-1.30839e-006
-1.30869e-006
-1.30885e-006
-1.30864e-006
-3.97568e-006
-3.9779e-006
-3.98006e-006
-3.98185e-006
-3.98327e-006
-3.98446e-006
-3.98545e-006
-3.98626e-006
-3.98689e-006
-3.98733e-006
-3.98764e-006
-3.9879e-006
-3.98828e-006
-3.98861e-006
-6.71894e-006
-6.71928e-006
-6.71995e-006
-6.72075e-006
-6.7215e-006
-6.72208e-006
-6.72244e-006
-6.72254e-006
-6.72239e-006
-6.72209e-006
-6.72179e-006
-6.72171e-006
-6.72234e-006
-6.72358e-006
-9.46695e-006
-9.46734e-006
-9.46791e-006
-9.46849e-006
-9.46898e-006
-9.46929e-006
-9.46936e-006
-9.46914e-006
-9.46862e-006
-9.46791e-006
-9.46724e-006
-9.46695e-006
-9.46778e-006
-9.46957e-006
-1.22174e-005
-1.22177e-005
-1.22183e-005
-1.22188e-005
-1.22191e-005
-1.22192e-005
-1.22191e-005
-1.22186e-005
-1.22178e-005
-1.22168e-005
-1.22159e-005
-1.22155e-005
-1.22165e-005
-1.22188e-005
-1.4973e-005
-1.49735e-005
-1.49743e-005
-1.49748e-005
-1.49751e-005
-1.49751e-005
-1.49748e-005
-1.49742e-005
-1.49731e-005
-1.49718e-005
-1.49706e-005
-1.49701e-005
-1.49714e-005
-1.49741e-005
-1.77346e-005
-1.77352e-005
-1.7736e-005
-1.77366e-005
-1.77369e-005
-1.7737e-005
-1.77366e-005
-1.77357e-005
-1.77344e-005
-1.77327e-005
-1.77312e-005
-1.77305e-005
-1.77319e-005
-1.7735e-005
-2.05039e-005
-2.05044e-005
-2.05051e-005
-2.05057e-005
-2.05061e-005
-2.05061e-005
-2.05057e-005
-2.05047e-005
-2.05031e-005
-2.05012e-005
-2.04994e-005
-2.04985e-005
-2.05001e-005
-2.05037e-005
-2.32821e-005
-2.32827e-005
-2.32834e-005
-2.3284e-005
-2.32842e-005
-2.32841e-005
-2.32836e-005
-2.32824e-005
-2.32806e-005
-2.32785e-005
-2.32766e-005
-2.32757e-005
-2.32775e-005
-2.32816e-005
-2.60704e-005
-2.6071e-005
-2.60717e-005
-2.60722e-005
-2.60724e-005
-2.60723e-005
-2.60716e-005
-2.60704e-005
-2.60685e-005
-2.60663e-005
-2.60643e-005
-2.60633e-005
-2.60651e-005
-2.60693e-005
-2.88699e-005
-2.88704e-005
-2.88712e-005
-2.88717e-005
-2.8872e-005
-2.88718e-005
-2.88712e-005
-2.88699e-005
-2.8868e-005
-2.88658e-005
-2.88636e-005
-2.88626e-005
-2.8864e-005
-2.88684e-005
-3.16816e-005
-3.16822e-005
-3.16829e-005
-3.16835e-005
-3.16838e-005
-3.16837e-005
-3.16831e-005
-3.16818e-005
-3.168e-005
-3.16777e-005
-3.16755e-005
-3.16744e-005
-3.16762e-005
-3.16806e-005
-3.45065e-005
-3.45071e-005
-3.45078e-005
-3.45084e-005
-3.45087e-005
-3.45086e-005
-3.4508e-005
-3.45068e-005
-3.4505e-005
-3.45029e-005
-3.45009e-005
-3.44999e-005
-3.45016e-005
-3.45058e-005
-3.73452e-005
-3.73459e-005
-3.73467e-005
-3.73473e-005
-3.73476e-005
-3.73474e-005
-3.73468e-005
-3.73457e-005
-3.7344e-005
-3.7342e-005
-3.734e-005
-3.73389e-005
-3.73403e-005
-3.73441e-005
-4.01987e-005
-4.01993e-005
-4.02002e-005
-4.02009e-005
-4.02011e-005
-4.0201e-005
-4.02004e-005
-4.01993e-005
-4.01976e-005
-4.01956e-005
-4.01937e-005
-4.01926e-005
-4.01936e-005
-4.01967e-005
-4.30674e-005
-4.3068e-005
-4.30689e-005
-4.30696e-005
-4.30699e-005
-4.30698e-005
-4.30692e-005
-4.30681e-005
-4.30666e-005
-4.30648e-005
-4.3063e-005
-4.30619e-005
-4.30624e-005
-4.30647e-005
-4.59518e-005
-4.59523e-005
-4.59532e-005
-4.59539e-005
-4.59542e-005
-4.59541e-005
-4.59535e-005
-4.59526e-005
-4.59512e-005
-4.59496e-005
-4.59481e-005
-4.5947e-005
-4.59471e-005
-4.59485e-005
-4.88521e-005
-4.88524e-005
-4.88533e-005
-4.8854e-005
-4.88542e-005
-4.8854e-005
-4.88535e-005
-4.88526e-005
-4.88514e-005
-4.88501e-005
-4.88488e-005
-4.88477e-005
-4.88472e-005
-4.88476e-005
-5.17684e-005
-5.17687e-005
-5.17695e-005
-5.177e-005
-5.17702e-005
-5.17699e-005
-5.17692e-005
-5.17683e-005
-5.17673e-005
-5.17661e-005
-5.17648e-005
-5.17636e-005
-5.17624e-005
-5.17618e-005
-5.47013e-005
-5.47012e-005
-5.47019e-005
-5.47023e-005
-5.47022e-005
-5.47017e-005
-5.47009e-005
-5.46999e-005
-5.46988e-005
-5.46975e-005
-5.46962e-005
-5.46947e-005
-5.46928e-005
-5.46911e-005
-5.76511e-005
-5.76507e-005
-5.7651e-005
-5.7651e-005
-5.76507e-005
-5.76499e-005
-5.76488e-005
-5.76475e-005
-5.76462e-005
-5.76448e-005
-5.76433e-005
-5.76414e-005
-5.76387e-005
-5.7636e-005
-6.06181e-005
-6.06173e-005
-6.06171e-005
-6.06167e-005
-6.06159e-005
-6.06146e-005
-6.06131e-005
-6.06115e-005
-6.06099e-005
-6.06082e-005
-6.06064e-005
-6.06042e-005
-6.06007e-005
-6.05972e-005
-6.36027e-005
-6.36012e-005
-6.36005e-005
-6.35995e-005
-6.35981e-005
-6.35962e-005
-6.35941e-005
-6.3592e-005
-6.359e-005
-6.3588e-005
-6.35858e-005
-6.35831e-005
-6.3579e-005
-6.3575e-005
-6.66051e-005
-6.66029e-005
-6.66013e-005
-6.65996e-005
-6.65975e-005
-6.65949e-005
-6.65921e-005
-6.65894e-005
-6.65867e-005
-6.65842e-005
-6.65815e-005
-6.65783e-005
-6.65737e-005
-6.65696e-005
-6.9626e-005
-6.96229e-005
-6.96202e-005
-6.96175e-005
-6.96146e-005
-6.9611e-005
-6.96074e-005
-6.96038e-005
-6.96004e-005
-6.95971e-005
-6.95937e-005
-6.95898e-005
-6.95849e-005
-6.95808e-005
-7.26663e-005
-7.2662e-005
-7.2658e-005
-7.26541e-005
-7.265e-005
-7.26454e-005
-7.26406e-005
-7.2636e-005
-7.26316e-005
-7.26273e-005
-7.26228e-005
-7.26181e-005
-7.26128e-005
-7.2609e-005
-7.57269e-005
-7.57213e-005
-7.57157e-005
-7.57105e-005
-7.5705e-005
-7.5699e-005
-7.56929e-005
-7.56869e-005
-7.56812e-005
-7.56755e-005
-7.56698e-005
-7.5664e-005
-7.56582e-005
-7.56549e-005
-7.8809e-005
-7.88019e-005
-7.87945e-005
-7.87876e-005
-7.87806e-005
-7.8773e-005
-7.87652e-005
-7.87576e-005
-7.87502e-005
-7.87429e-005
-7.87356e-005
-7.87284e-005
-7.8722e-005
-7.8719e-005
-8.1914e-005
-8.1905e-005
-8.18954e-005
-8.18866e-005
-8.18778e-005
-8.18683e-005
-8.18586e-005
-8.18491e-005
-8.18397e-005
-8.18303e-005
-8.1821e-005
-8.18122e-005
-8.18051e-005
-8.18025e-005
-8.50429e-005
-8.50317e-005
-8.50196e-005
-8.50086e-005
-8.49977e-005
-8.49858e-005
-8.49739e-005
-8.4962e-005
-8.49502e-005
-8.49385e-005
-8.49269e-005
-8.49161e-005
-8.49081e-005
-8.4906e-005
-8.8197e-005
-8.81831e-005
-8.81682e-005
-8.81546e-005
-8.81412e-005
-8.81267e-005
-8.81121e-005
-8.80975e-005
-8.80829e-005
-8.80683e-005
-8.8054e-005
-8.8041e-005
-8.80321e-005
-8.80306e-005
-9.13778e-005
-9.13608e-005
-9.13425e-005
-9.13259e-005
-9.13097e-005
-9.12922e-005
-9.12745e-005
-9.12568e-005
-9.1239e-005
-9.12212e-005
-9.12038e-005
-9.11881e-005
-9.11781e-005
-9.11774e-005
-9.45874e-005
-9.4567e-005
-9.45447e-005
-9.45247e-005
-9.45051e-005
-9.44841e-005
-9.44629e-005
-9.44415e-005
-9.44201e-005
-9.43985e-005
-9.43775e-005
-9.43587e-005
-9.43473e-005
-9.43475e-005
-9.7828e-005
-9.78035e-005
-9.77767e-005
-9.77527e-005
-9.77293e-005
-9.77043e-005
-9.76789e-005
-9.76534e-005
-9.76277e-005
-9.76018e-005
-9.75766e-005
-9.75542e-005
-9.7541e-005
-9.7542e-005
-0.000101101
-0.000101072
-0.00010104
-0.000101012
-0.000100984
-0.000100954
-0.000100924
-0.000100894
-0.000100863
-0.000100832
-0.000100802
-0.000100776
-0.00010076
-0.000100762
-0.000104409
-0.000104374
-0.000104336
-0.000104303
-0.00010427
-0.000104235
-0.0001042
-0.000104164
-0.000104128
-0.000104091
-0.000104055
-0.000104024
-0.000104006
-0.000104008
-0.000107753
-0.000107712
-0.000107668
-0.000107628
-0.00010759
-0.000107549
-0.000107507
-0.000107465
-0.000107422
-0.000107379
-0.000107337
-0.0001073
-0.000107279
-0.000107282
-0.000111136
-0.000111087
-0.000111035
-0.000110989
-0.000110944
-0.000110896
-0.000110847
-0.000110798
-0.000110748
-0.000110698
-0.000110649
-0.000110605
-0.00011058
-0.000110584
-0.000114559
-0.000114502
-0.000114441
-0.000114387
-0.000114335
-0.000114279
-0.000114222
-0.000114165
-0.000114107
-0.000114048
-0.000113991
-0.000113939
-0.00011391
-0.000113915
-0.000118024
-0.000117958
-0.000117887
-0.000117824
-0.000117764
-0.000117698
-0.000117633
-0.000117566
-0.000117499
-0.000117431
-0.000117363
-0.000117304
-0.00011727
-0.000117275
-0.000121534
-0.000121456
-0.000121374
-0.000121301
-0.000121231
-0.000121156
-0.000121079
-0.000121003
-0.000120925
-0.000120846
-0.000120768
-0.000120699
-0.00012066
-0.000120666
-0.00012509
-0.000125
-0.000124905
-0.000124821
-0.00012474
-0.000124653
-0.000124565
-0.000124476
-0.000124386
-0.000124295
-0.000124206
-0.000124126
-0.000124082
-0.000124089
-0.000128696
-0.000128592
-0.000128481
-0.000128384
-0.000128291
-0.000128191
-0.00012809
-0.000127988
-0.000127885
-0.000127781
-0.000127678
-0.000127587
-0.000127536
-0.000127546
-0.000132354
-0.000132233
-0.000132106
-0.000131994
-0.000131887
-0.000131773
-0.000131657
-0.000131541
-0.000131423
-0.000131303
-0.000131186
-0.000131082
-0.000131024
-0.000131036
-0.000136066
-0.000135926
-0.00013578
-0.000135653
-0.00013553
-0.000135399
-0.000135267
-0.000135134
-0.000135
-0.000134864
-0.00013473
-0.000134611
-0.000134546
-0.000134562
-0.000139834
-0.000139674
-0.000139506
-0.00013936
-0.000139221
-0.000139071
-0.000138921
-0.00013877
-0.000138617
-0.000138463
-0.000138311
-0.000138176
-0.000138104
-0.000138123
-0.000143661
-0.000143477
-0.000143286
-0.00014312
-0.000142961
-0.000142791
-0.000142621
-0.00014245
-0.000142277
-0.000142102
-0.00014193
-0.000141779
-0.000141698
-0.000141723
-0.00014755
-0.00014734
-0.000147122
-0.000146934
-0.000146754
-0.000146561
-0.000146368
-0.000146175
-0.00014598
-0.000145783
-0.000145589
-0.000145418
-0.000145329
-0.00014536
-0.000151502
-0.000151264
-0.000151016
-0.000150803
-0.000150599
-0.000150382
-0.000150164
-0.000149946
-0.000149727
-0.000149505
-0.000149288
-0.000149097
-0.000148999
-0.000149037
-0.00015552
-0.000155249
-0.000154969
-0.000154728
-0.000154499
-0.000154255
-0.00015401
-0.000153765
-0.00015352
-0.000153271
-0.000153028
-0.000152815
-0.000152707
-0.000152754
-0.000159605
-0.0001593
-0.000158984
-0.000158712
-0.000158455
-0.000158181
-0.000157906
-0.000157633
-0.000157358
-0.000157081
-0.000156809
-0.000156572
-0.000156455
-0.000156512
-0.000163761
-0.000163416
-0.000163061
-0.000162756
-0.000162469
-0.000162161
-0.000161855
-0.00016155
-0.000161244
-0.000160935
-0.000160632
-0.000160369
-0.000160241
-0.00016031
-0.000167986
-0.000167599
-0.000167201
-0.000166861
-0.00016654
-0.000166197
-0.000165855
-0.000165516
-0.000165176
-0.000164833
-0.000164497
-0.000164206
-0.000164066
-0.000164148
-0.000172282
-0.000171848
-0.000171403
-0.000171024
-0.000170667
-0.000170287
-0.000169907
-0.000169532
-0.000169155
-0.000168775
-0.000168403
-0.000168081
-0.00016793
-0.000168025
-0.000176647
-0.000176163
-0.000175667
-0.000175246
-0.000174851
-0.000174429
-0.000174009
-0.000173594
-0.000173178
-0.000172759
-0.000172349
-0.000171994
-0.00017183
-0.00017194
-0.00018108
-0.000180541
-0.000179991
-0.000179525
-0.000179088
-0.000178622
-0.000178159
-0.000177702
-0.000177244
-0.000176782
-0.000176331
-0.000175942
-0.000175765
-0.000175892
-0.000185576
-0.000184979
-0.00018437
-0.000183856
-0.000183374
-0.000182861
-0.000182353
-0.00018185
-0.000181348
-0.000180842
-0.000180348
-0.000179921
-0.00017973
-0.000179876
-0.00019013
-0.00018947
-0.000188799
-0.000188234
-0.000187705
-0.000187142
-0.000186585
-0.000186036
-0.000185487
-0.000184934
-0.000184394
-0.000183929
-0.000183724
-0.000183889
-0.000194736
-0.000194009
-0.000193271
-0.000192651
-0.000192073
-0.000191458
-0.00019085
-0.00019025
-0.000189652
-0.00018905
-0.000188463
-0.000187958
-0.000187738
-0.000187924
-0.000199385
-0.000198587
-0.000197779
-0.000197102
-0.000196471
-0.000195801
-0.000195139
-0.000194487
-0.000193837
-0.000193184
-0.000192547
-0.000192
-0.000191766
-0.000191976
-0.000204068
-0.000203195
-0.000202314
-0.000201576
-0.000200891
-0.000200162
-0.000199444
-0.000198738
-0.000198035
-0.000197328
-0.000196639
-0.00019605
-0.000195801
-0.000196037
-0.000208774
-0.000207822
-0.000206863
-0.000206063
-0.00020532
-0.000204531
-0.000203755
-0.000202993
-0.000202234
-0.000201472
-0.000200731
-0.000200097
-0.000199835
-0.000200098
-0.000213489
-0.000212456
-0.000211416
-0.000210551
-0.000209749
-0.000208898
-0.000208061
-0.000207241
-0.000206426
-0.000205608
-0.000204812
-0.000204133
-0.000203857
-0.000204151
-0.000218201
-0.000217083
-0.00021596
-0.000215026
-0.000214164
-0.000213249
-0.00021235
-0.000211471
-0.000210598
-0.000209722
-0.000208871
-0.000208147
-0.000207859
-0.000208185
-0.000222893
-0.000221687
-0.000220478
-0.000219476
-0.000218551
-0.000217571
-0.000216609
-0.00021567
-0.000214738
-0.000213804
-0.000212897
-0.000212128
-0.000211829
-0.00021219
-0.000227548
-0.000226254
-0.000224956
-0.000223884
-0.000222896
-0.000221849
-0.000220824
-0.000219823
-0.000218833
-0.000217841
-0.000216878
-0.000216064
-0.000215755
-0.000216152
-0.000232148
-0.000230763
-0.000229377
-0.000228233
-0.000227181
-0.000226067
-0.000224978
-0.000223917
-0.000222867
-0.000221817
-0.000220799
-0.000219941
-0.000219624
-0.00022006
-0.000236671
-0.000235195
-0.000233719
-0.000232504
-0.000231388
-0.000230208
-0.000229055
-0.000227934
-0.000226826
-0.000225719
-0.000224647
-0.000223746
-0.000223422
-0.000223899
-0.000241098
-0.000239529
-0.000237964
-0.000236678
-0.0002355
-0.000234254
-0.000233039
-0.000231858
-0.000230694
-0.000229531
-0.000228407
-0.000227465
-0.000227137
-0.000227657
-0.000245405
-0.000243747
-0.000242093
-0.000240736
-0.000239496
-0.000238185
-0.000236909
-0.000235672
-0.000234453
-0.000233237
-0.000232063
-0.000231082
-0.000230753
-0.000231316
-0.000249571
-0.000247824
-0.000246083
-0.000244659
-0.000243358
-0.000241984
-0.000240649
-0.000239357
-0.000238086
-0.00023682
-0.000235599
-0.000234583
-0.000234254
-0.000234863
-0.000253568
-0.000251736
-0.000249912
-0.000248422
-0.000247064
-0.000245631
-0.00024424
-0.000242895
-0.000241575
-0.000240263
-0.000238998
-0.00023795
-0.000237625
-0.000238279
-0.000257372
-0.000255458
-0.000253554
-0.000252002
-0.00025059
-0.000249102
-0.000247659
-0.000246266
-0.000244902
-0.000243547
-0.000242243
-0.000241167
-0.000240849
-0.000241549
-0.00026096
-0.000258969
-0.00025699
-0.00025538
-0.000253917
-0.000252377
-0.000250886
-0.00024945
-0.000248046
-0.000246653
-0.000245316
-0.000244216
-0.000243907
-0.000244652
-0.000264305
-0.000262244
-0.000260197
-0.000258534
-0.000257025
-0.000255436
-0.000253902
-0.000252428
-0.000250988
-0.000249563
-0.000248197
-0.00024708
-0.000246783
-0.000247572
-0.000267378
-0.000265254
-0.000263146
-0.000261436
-0.000259887
-0.000258258
-0.000256686
-0.000255179
-0.00025371
-0.000252259
-0.00025087
-0.000249739
-0.000249458
-0.000250289
-0.000270157
-0.000267978
-0.000265816
-0.000264065
-0.000262484
-0.00026082
-0.000259218
-0.000257684
-0.000256192
-0.000254721
-0.000253316
-0.000252178
-0.000251914
-0.000252786
-0.000272627
-0.000270402
-0.000268195
-0.00026641
-0.0002648
-0.000263108
-0.000261482
-0.000259928
-0.00025842
-0.000256935
-0.00025552
-0.00025438
-0.000254137
-0.000255047
-0.000274769
-0.00027251
-0.000270269
-0.000268458
-0.000266826
-0.000265113
-0.000263469
-0.000261901
-0.000260382
-0.00025889
-0.000257472
-0.000256337
-0.000256117
-0.00025706
-0.00027657
-0.000274287
-0.000272023
-0.000270197
-0.000268554
-0.000266828
-0.000265174
-0.000263598
-0.000262076
-0.000260584
-0.000259169
-0.000258043
-0.000257848
-0.000258823
-0.000278028
-0.000275732
-0.000273457
-0.000271624
-0.000269978
-0.00026825
-0.000266595
-0.000265022
-0.000263504
-0.00026202
-0.000260615
-0.000259505
-0.000259337
-0.000260339
-0.000279143
-0.000276849
-0.000274575
-0.000272745
-0.000271102
-0.00026938
-0.000267734
-0.000266173
-0.00026467
-0.000263203
-0.000261819
-0.000260733
-0.000260594
-0.000261619
-0.000279915
-0.000277638
-0.00027538
-0.000273564
-0.000271935
-0.000270229
-0.0002686
-0.000267059
-0.000265581
-0.000264142
-0.000262788
-0.000261735
-0.00026163
-0.000262673
-0.000280345
-0.000278099
-0.000275873
-0.000274084
-0.000272481
-0.000270802
-0.000269202
-0.000267692
-0.000266246
-0.000264844
-0.000263529
-0.000262516
-0.000262447
-0.000263504
-0.000280441
-0.000278241
-0.000276059
-0.000274308
-0.000272743
-0.000271104
-0.000269544
-0.000268074
-0.000266671
-0.000265314
-0.000264046
-0.000263078
-0.000263045
-0.000264109
-0.000280223
-0.000278085
-0.000275962
-0.000274261
-0.000272741
-0.000271151
-0.000269639
-0.000268218
-0.000266864
-0.000265558
-0.000264342
-0.000263422
-0.000263421
-0.000264483
-0.000279704
-0.000277643
-0.000275596
-0.000273953
-0.000272487
-0.000270954
-0.000269498
-0.000268131
-0.000266833
-0.000265583
-0.000264423
-0.000263554
-0.000263582
-0.000264632
-0.000278893
-0.000276927
-0.00027497
-0.000273399
-0.000271996
-0.000270528
-0.000269134
-0.000267828
-0.00026659
-0.000265401
-0.000264301
-0.000263485
-0.000263538
-0.000264567
-0.000277809
-0.000275951
-0.0002741
-0.000272614
-0.000271284
-0.000269892
-0.000268569
-0.000267329
-0.000266155
-0.000265029
-0.000263991
-0.000263229
-0.000263303
-0.0002643
-0.000276481
-0.000274743
-0.000273009
-0.000271616
-0.000270369
-0.000269061
-0.000267818
-0.000266652
-0.000265547
-0.00026449
-0.000263516
-0.000262806
-0.000262894
-0.000263849
-0.000274948
-0.000273347
-0.000271745
-0.000270452
-0.000269292
-0.000268074
-0.000266914
-0.000265825
-0.000264793
-0.000263806
-0.000262899
-0.000262241
-0.000262337
-0.000263236
-0.000273246
-0.000271796
-0.000270339
-0.000269157
-0.00026809
-0.000266967
-0.000265894
-0.000264884
-0.000263926
-0.000263008
-0.000262165
-0.000261556
-0.00026165
-0.00026248
-0.000271415
-0.000270128
-0.000268829
-0.000267766
-0.0002668
-0.000265779
-0.000264799
-0.000263872
-0.000262988
-0.000262138
-0.000261355
-0.000260787
-0.000260863
-0.000261608
-0.000269511
-0.000268395
-0.000267262
-0.000266326
-0.000265466
-0.000264553
-0.000263668
-0.000262824
-0.000262014
-0.000261231
-0.000260505
-0.000259972
-0.000260023
-0.00026067
-0.000267604
-0.000266666
-0.000265705
-0.000264896
-0.000264142
-0.000263336
-0.000262547
-0.000261785
-0.000261046
-0.000260327
-0.000259657
-0.00025916
-0.000259182
-0.000259724
-0.000265781
-0.000265027
-0.000264241
-0.000263557
-0.000262902
-0.000262194
-0.000261491
-0.000260801
-0.000260126
-0.000259465
-0.000258847
-0.000258383
-0.00025837
-0.000258797
-0.000264141
-0.000263567
-0.00026295
-0.000262385
-0.000261823
-0.000261205
-0.000260574
-0.000259942
-0.000259312
-0.000258693
-0.000258117
-0.000257679
-0.000257629
-0.000257942
-0.000262837
-0.000262425
-0.000261946
-0.000261465
-0.000260966
-0.000260412
-0.000259833
-0.000259237
-0.000258634
-0.000258039
-0.000257484
-0.000257058
-0.000256965
-0.000257172
-0.000262056
-0.000261778
-0.00026139
-0.000260937
-0.000260425
-0.000259859
-0.000259261
-0.000258647
-0.000258033
-0.000257441
-0.000256908
-0.000256515
-0.000256438
-0.000256608
-1.30127e-006
-1.30291e-006
-1.30413e-006
-1.30511e-006
-1.30586e-006
-1.30646e-006
-1.30699e-006
-1.30746e-006
-1.30789e-006
-1.30827e-006
-1.30861e-006
-1.30886e-006
-1.30889e-006
-1.30847e-006
-3.97515e-006
-3.9775e-006
-3.97973e-006
-3.98165e-006
-3.98325e-006
-3.98459e-006
-3.98571e-006
-3.98664e-006
-3.98739e-006
-3.98798e-006
-3.98846e-006
-3.98883e-006
-3.98913e-006
-3.98912e-006
-6.72023e-006
-6.72057e-006
-6.72127e-006
-6.72211e-006
-6.72295e-006
-6.72369e-006
-6.72427e-006
-6.72464e-006
-6.72478e-006
-6.72478e-006
-6.72478e-006
-6.72495e-006
-6.72547e-006
-6.72617e-006
-9.46937e-006
-9.46975e-006
-9.47036e-006
-9.47096e-006
-9.47151e-006
-9.47198e-006
-9.47228e-006
-9.47238e-006
-9.47226e-006
-9.47201e-006
-9.47182e-006
-9.47192e-006
-9.47264e-006
-9.47372e-006
-1.22205e-005
-1.22209e-005
-1.22215e-005
-1.22221e-005
-1.22225e-005
-1.22229e-005
-1.2223e-005
-1.22229e-005
-1.22226e-005
-1.22222e-005
-1.22219e-005
-1.2222e-005
-1.22229e-005
-1.22243e-005
-1.49769e-005
-1.49773e-005
-1.4978e-005
-1.49787e-005
-1.49792e-005
-1.49795e-005
-1.49797e-005
-1.49795e-005
-1.49791e-005
-1.49785e-005
-1.49781e-005
-1.49782e-005
-1.49793e-005
-1.4981e-005
-1.77393e-005
-1.77398e-005
-1.77405e-005
-1.77412e-005
-1.77418e-005
-1.77421e-005
-1.77422e-005
-1.7742e-005
-1.77414e-005
-1.77407e-005
-1.77401e-005
-1.77402e-005
-1.77415e-005
-1.77434e-005
-2.05094e-005
-2.05099e-005
-2.05106e-005
-2.05113e-005
-2.05118e-005
-2.05121e-005
-2.05121e-005
-2.05118e-005
-2.05111e-005
-2.05102e-005
-2.05096e-005
-2.05096e-005
-2.05111e-005
-2.05133e-005
-2.32883e-005
-2.32887e-005
-2.32895e-005
-2.32901e-005
-2.32905e-005
-2.32908e-005
-2.32907e-005
-2.32903e-005
-2.32895e-005
-2.32885e-005
-2.32878e-005
-2.32879e-005
-2.32896e-005
-2.3292e-005
-2.6077e-005
-2.60775e-005
-2.60782e-005
-2.60788e-005
-2.60792e-005
-2.60794e-005
-2.60793e-005
-2.60788e-005
-2.60779e-005
-2.6077e-005
-2.60763e-005
-2.60764e-005
-2.60782e-005
-2.60805e-005
-2.88769e-005
-2.88773e-005
-2.88781e-005
-2.88787e-005
-2.88791e-005
-2.88792e-005
-2.88791e-005
-2.88786e-005
-2.88777e-005
-2.88767e-005
-2.8876e-005
-2.8876e-005
-2.88775e-005
-2.88801e-005
-3.16888e-005
-3.16893e-005
-3.169e-005
-3.16907e-005
-3.16911e-005
-3.16912e-005
-3.16911e-005
-3.16906e-005
-3.16897e-005
-3.16886e-005
-3.16879e-005
-3.16879e-005
-3.16895e-005
-3.1692e-005
-3.45136e-005
-3.45142e-005
-3.45149e-005
-3.45156e-005
-3.45159e-005
-3.4516e-005
-3.45158e-005
-3.45153e-005
-3.45144e-005
-3.45134e-005
-3.45126e-005
-3.45126e-005
-3.45141e-005
-3.45165e-005
-3.73522e-005
-3.73527e-005
-3.73535e-005
-3.73541e-005
-3.73545e-005
-3.73545e-005
-3.73542e-005
-3.73536e-005
-3.73527e-005
-3.73516e-005
-3.73507e-005
-3.73506e-005
-3.73517e-005
-3.73539e-005
-4.02052e-005
-4.02057e-005
-4.02066e-005
-4.02072e-005
-4.02075e-005
-4.02075e-005
-4.02072e-005
-4.02064e-005
-4.02054e-005
-4.02042e-005
-4.02032e-005
-4.02028e-005
-4.02035e-005
-4.02052e-005
-4.30732e-005
-4.30738e-005
-4.30747e-005
-4.30753e-005
-4.30756e-005
-4.30755e-005
-4.30751e-005
-4.30743e-005
-4.30732e-005
-4.30719e-005
-4.30708e-005
-4.30701e-005
-4.30703e-005
-4.30714e-005
-4.59568e-005
-4.59573e-005
-4.59581e-005
-4.59587e-005
-4.59589e-005
-4.59587e-005
-4.59582e-005
-4.59573e-005
-4.59562e-005
-4.59549e-005
-4.59537e-005
-4.59528e-005
-4.59525e-005
-4.5953e-005
-4.8856e-005
-4.88564e-005
-4.88572e-005
-4.88577e-005
-4.88577e-005
-4.88574e-005
-4.88567e-005
-4.88557e-005
-4.88546e-005
-4.88533e-005
-4.8852e-005
-4.88509e-005
-4.885e-005
-4.88499e-005
-5.17711e-005
-5.17713e-005
-5.1772e-005
-5.17724e-005
-5.17723e-005
-5.17718e-005
-5.17709e-005
-5.17698e-005
-5.17684e-005
-5.1767e-005
-5.17655e-005
-5.17641e-005
-5.17626e-005
-5.17617e-005
-5.47024e-005
-5.47024e-005
-5.47029e-005
-5.47031e-005
-5.47028e-005
-5.4702e-005
-5.47009e-005
-5.46995e-005
-5.46979e-005
-5.46962e-005
-5.46945e-005
-5.46926e-005
-5.46903e-005
-5.46887e-005
-5.76505e-005
-5.76502e-005
-5.76504e-005
-5.76502e-005
-5.76495e-005
-5.76483e-005
-5.76468e-005
-5.76451e-005
-5.76432e-005
-5.76412e-005
-5.76391e-005
-5.76368e-005
-5.76338e-005
-5.76315e-005
-6.06155e-005
-6.06148e-005
-6.06145e-005
-6.06139e-005
-6.06128e-005
-6.06111e-005
-6.0609e-005
-6.06068e-005
-6.06046e-005
-6.06023e-005
-6.05999e-005
-6.05972e-005
-6.05936e-005
-6.05907e-005
-6.35977e-005
-6.35964e-005
-6.35955e-005
-6.35944e-005
-6.35927e-005
-6.35904e-005
-6.35878e-005
-6.35851e-005
-6.35825e-005
-6.35798e-005
-6.35771e-005
-6.35741e-005
-6.35702e-005
-6.3567e-005
-6.65975e-005
-6.65955e-005
-6.65938e-005
-6.65919e-005
-6.65895e-005
-6.65865e-005
-6.65833e-005
-6.65801e-005
-6.6577e-005
-6.6574e-005
-6.6571e-005
-6.65679e-005
-6.65638e-005
-6.65606e-005
-6.96155e-005
-6.96126e-005
-6.96098e-005
-6.9607e-005
-6.96037e-005
-6.95999e-005
-6.95959e-005
-6.9592e-005
-6.95884e-005
-6.9585e-005
-6.95818e-005
-6.95785e-005
-6.95745e-005
-6.95714e-005
-7.26523e-005
-7.26483e-005
-7.26442e-005
-7.26403e-005
-7.26359e-005
-7.2631e-005
-7.26261e-005
-7.26214e-005
-7.26171e-005
-7.26132e-005
-7.26097e-005
-7.26063e-005
-7.26024e-005
-7.25997e-005
-7.57088e-005
-7.57035e-005
-7.56979e-005
-7.56926e-005
-7.5687e-005
-7.56809e-005
-7.56748e-005
-7.56691e-005
-7.56639e-005
-7.56593e-005
-7.56553e-005
-7.56518e-005
-7.56483e-005
-7.5646e-005
-7.87861e-005
-7.87791e-005
-7.87717e-005
-7.8765e-005
-7.87579e-005
-7.87503e-005
-7.87429e-005
-7.87359e-005
-7.87296e-005
-7.87242e-005
-7.87196e-005
-7.87159e-005
-7.87126e-005
-7.87109e-005
-8.18852e-005
-8.18764e-005
-8.18669e-005
-8.18583e-005
-8.18494e-005
-8.18401e-005
-8.1831e-005
-8.18226e-005
-8.1815e-005
-8.18085e-005
-8.18031e-005
-8.17992e-005
-8.17963e-005
-8.17952e-005
-8.50071e-005
-8.49961e-005
-8.49841e-005
-8.49734e-005
-8.49625e-005
-8.49511e-005
-8.49401e-005
-8.49299e-005
-8.49207e-005
-8.49129e-005
-8.49067e-005
-8.49025e-005
-8.49002e-005
-8.48999e-005
-8.81528e-005
-8.81392e-005
-8.81244e-005
-8.81112e-005
-8.8098e-005
-8.80842e-005
-8.80709e-005
-8.80586e-005
-8.80477e-005
-8.80384e-005
-8.80312e-005
-8.80268e-005
-8.80251e-005
-8.80259e-005
-9.13239e-005
-9.13072e-005
-9.1289e-005
-9.1273e-005
-9.1257e-005
-9.12405e-005
-9.12246e-005
-9.121e-005
-9.11969e-005
-9.11859e-005
-9.11777e-005
-9.1173e-005
-9.11722e-005
-9.11743e-005
-9.4522e-005
-9.45017e-005
-9.44797e-005
-9.44604e-005
-9.44412e-005
-9.44215e-005
-9.44026e-005
-9.43852e-005
-9.43698e-005
-9.43569e-005
-9.43474e-005
-9.43423e-005
-9.43424e-005
-9.43459e-005
-9.77488e-005
-9.77245e-005
-9.76981e-005
-9.7675e-005
-9.76521e-005
-9.76287e-005
-9.76063e-005
-9.75857e-005
-9.75675e-005
-9.75524e-005
-9.75414e-005
-9.75359e-005
-9.75368e-005
-9.75419e-005
-0.000101006
-0.000100977
-0.000100945
-0.000100918
-0.000100891
-0.000100863
-0.000100837
-0.000100813
-0.000100791
-0.000100774
-0.000100761
-0.000100755
-0.000100757
-0.000100763
-0.000104295
-0.00010426
-0.000104223
-0.000104191
-0.000104159
-0.000104126
-0.000104095
-0.000104067
-0.000104042
-0.000104021
-0.000104006
-0.000104
-0.000104002
-0.000104011
-0.000107617
-0.000107576
-0.000107533
-0.000107495
-0.000107457
-0.000107419
-0.000107383
-0.00010735
-0.00010732
-0.000107296
-0.000107279
-0.000107272
-0.000107275
-0.000107286
-0.000110975
-0.000110927
-0.000110875
-0.000110831
-0.000110787
-0.000110743
-0.0001107
-0.000110662
-0.000110628
-0.0001106
-0.00011058
-0.000110571
-0.000110576
-0.000110589
-0.000114369
-0.000114313
-0.000114253
-0.000114201
-0.00011415
-0.000114098
-0.000114049
-0.000114004
-0.000113965
-0.000113932
-0.000113909
-0.0001139
-0.000113906
-0.000113921
-0.000117802
-0.000117737
-0.000117666
-0.000117606
-0.000117547
-0.000117487
-0.00011743
-0.000117378
-0.000117332
-0.000117294
-0.000117268
-0.000117258
-0.000117266
-0.000117284
-0.000121276
-0.000121199
-0.000121117
-0.000121047
-0.000120979
-0.000120909
-0.000120843
-0.000120783
-0.00012073
-0.000120687
-0.000120658
-0.000120646
-0.000120657
-0.000120679
-0.000124791
-0.000124702
-0.000124607
-0.000124526
-0.000124447
-0.000124367
-0.00012429
-0.000124221
-0.000124161
-0.000124112
-0.000124079
-0.000124067
-0.00012408
-0.000124107
-0.000128351
-0.000128247
-0.000128137
-0.000128044
-0.000127954
-0.000127861
-0.000127774
-0.000127695
-0.000127626
-0.00012757
-0.000127533
-0.00012752
-0.000127537
-0.000127569
-0.000131958
-0.000131838
-0.000131711
-0.000131604
-0.0001315
-0.000131394
-0.000131294
-0.000131203
-0.000131125
-0.000131062
-0.000131021
-0.000131007
-0.000131028
-0.000131067
-0.000135613
-0.000135474
-0.000135329
-0.000135206
-0.000135087
-0.000134966
-0.000134852
-0.000134749
-0.00013466
-0.00013459
-0.000134543
-0.00013453
-0.000134556
-0.000134603
-0.000139318
-0.000139159
-0.000138993
-0.000138853
-0.000138717
-0.000138578
-0.000138449
-0.000138332
-0.000138232
-0.000138153
-0.000138101
-0.000138088
-0.000138122
-0.000138178
-0.000143077
-0.000142895
-0.000142704
-0.000142545
-0.00014239
-0.000142233
-0.000142086
-0.000141954
-0.000141841
-0.000141753
-0.000141696
-0.000141684
-0.000141726
-0.000141792
-0.00014689
-0.000146682
-0.000146465
-0.000146284
-0.000146109
-0.000145931
-0.000145764
-0.000145616
-0.000145489
-0.000145391
-0.000145329
-0.000145319
-0.000145369
-0.000145449
-0.000150759
-0.000150523
-0.000150276
-0.000150072
-0.000149873
-0.000149673
-0.000149485
-0.000149318
-0.000149177
-0.000149068
-0.000149001
-0.000148993
-0.000149054
-0.000149148
-0.000154687
-0.000154419
-0.00015414
-0.000153909
-0.000153686
-0.00015346
-0.000153249
-0.000153063
-0.000152905
-0.000152784
-0.000152712
-0.000152707
-0.000152781
-0.000152891
-0.000158675
-0.000158372
-0.000158058
-0.000157797
-0.000157547
-0.000157293
-0.000157058
-0.000156849
-0.000156674
-0.000156541
-0.000156464
-0.000156461
-0.00015655
-0.000156679
-0.000162725
-0.000162383
-0.000162029
-0.000161738
-0.000161458
-0.000161174
-0.000160911
-0.000160679
-0.000160485
-0.000160339
-0.000160255
-0.000160257
-0.000160362
-0.000160511
-0.000166836
-0.000166452
-0.000166056
-0.00016573
-0.000165418
-0.000165101
-0.000164809
-0.000164552
-0.000164338
-0.000164177
-0.000164088
-0.000164095
-0.000164217
-0.000164389
-0.000171009
-0.00017058
-0.000170137
-0.000169775
-0.000169427
-0.000169075
-0.000168751
-0.000168466
-0.000168231
-0.000168055
-0.000167959
-0.000167972
-0.000168115
-0.000168311
-0.000175243
-0.000174764
-0.000174272
-0.000173869
-0.000173483
-0.000173094
-0.000172736
-0.000172422
-0.000172163
-0.000171971
-0.00017187
-0.000171889
-0.000172053
-0.000172277
-0.000179536
-0.000179003
-0.000178457
-0.000178012
-0.000177586
-0.000177156
-0.000176761
-0.000176416
-0.000176132
-0.000175924
-0.000175816
-0.000175843
-0.000176031