/*--------------------------------*- C++ -*----------------------------------*\
| =========                 |                                                 |
| \\      /  F ield         | OpenFOAM: The Open Source CFD Toolbox           |
|  \\    /   O peration     | Version:  5.x                                   |
|   \\  /    A nd           | Web:      www.OpenFOAM.org                      |
|    \\/     M anipulation  |                                                 |
\*---------------------------------------------------------------------------*/
/*   Windows 32 and 64 bit porting by blueCAPE: http://www.bluecape.com.pt   *\
|  Based on Windows porting (2.0.x v4) by Symscape: http://www.symscape.com   |
\*---------------------------------------------------------------------------*/
FoamFile
{
    version     2.0;
    format      ascii;
    class       volScalarField;
    location    "0.8";
    object      p;
}
// * * * * * * * * * * * * * * * * * * * * * * * * * * * * * * * * * * * * * //

dimensions      [0 2 -2 0 0 0 0];

internalField   nonuniform List<scalar> 
141075
(
-3.35584e-007
-3.35554e-007
-3.35467e-007
-3.35363e-007
-3.35324e-007
-3.35296e-007
-3.35275e-007
-3.35252e-007
-3.35223e-007
-3.35176e-007
-3.3508e-007
-3.34918e-007
-3.34731e-007
-3.34549e-007
-1.0281e-006
-1.02787e-006
-1.02728e-006
-1.02665e-006
-1.02609e-006
-1.0256e-006
-1.02518e-006
-1.02483e-006
-1.02451e-006
-1.0242e-006
-1.02386e-006
-1.02344e-006
-1.02296e-006
-1.02253e-006
-1.74044e-006
-1.73988e-006
-1.73889e-006
-1.73801e-006
-1.73714e-006
-1.73633e-006
-1.73558e-006
-1.7349e-006
-1.73427e-006
-1.73368e-006
-1.73309e-006
-1.73241e-006
-1.73158e-006
-1.73076e-006
-2.44695e-006
-2.44596e-006
-2.44445e-006
-2.44319e-006
-2.44219e-006
-2.44129e-006
-2.44042e-006
-2.4396e-006
-2.43879e-006
-2.43799e-006
-2.43715e-006
-2.43619e-006
-2.43507e-006
-2.43393e-006
-3.1443e-006
-3.14293e-006
-3.14091e-006
-3.13902e-006
-3.13735e-006
-3.13587e-006
-3.13454e-006
-3.13333e-006
-3.13219e-006
-3.13108e-006
-3.12993e-006
-3.12867e-006
-3.12727e-006
-3.12595e-006
-3.83236e-006
-3.83067e-006
-3.82819e-006
-3.82592e-006
-3.82389e-006
-3.82206e-006
-3.82038e-006
-3.81885e-006
-3.81745e-006
-3.81612e-006
-3.8148e-006
-3.8134e-006
-3.81185e-006
-3.8104e-006
-4.50933e-006
-4.50727e-006
-4.50421e-006
-4.50152e-006
-4.49923e-006
-4.49718e-006
-4.49531e-006
-4.49361e-006
-4.49206e-006
-4.49061e-006
-4.4892e-006
-4.4877e-006
-4.48608e-006
-4.48456e-006
-5.17257e-006
-5.17022e-006
-5.16671e-006
-5.16358e-006
-5.16088e-006
-5.15849e-006
-5.15634e-006
-5.15442e-006
-5.1527e-006
-5.15113e-006
-5.14963e-006
-5.14805e-006
-5.14639e-006
-5.14489e-006
-5.81884e-006
-5.81618e-006
-5.81221e-006
-5.8087e-006
-5.80571e-006
-5.80307e-006
-5.80075e-006
-5.7987e-006
-5.79688e-006
-5.79526e-006
-5.79374e-006
-5.79218e-006
-5.79061e-006
-5.78924e-006
-6.44552e-006
-6.4425e-006
-6.438e-006
-6.43409e-006
-6.43084e-006
-6.42804e-006
-6.42556e-006
-6.42339e-006
-6.42153e-006
-6.41994e-006
-6.41857e-006
-6.41724e-006
-6.41599e-006
-6.41491e-006
-7.05027e-006
-7.04688e-006
-7.0419e-006
-7.03755e-006
-7.03392e-006
-7.0308e-006
-7.02809e-006
-7.02578e-006
-7.02385e-006
-7.02227e-006
-7.02101e-006
-7.01985e-006
-7.01884e-006
-7.01802e-006
-7.63038e-006
-7.62644e-006
-7.62087e-006
-7.61608e-006
-7.61217e-006
-7.60884e-006
-7.60601e-006
-7.60362e-006
-7.60165e-006
-7.60009e-006
-7.59889e-006
-7.59785e-006
-7.59707e-006
-7.59655e-006
-8.18277e-006
-8.17866e-006
-8.17276e-006
-8.16727e-006
-8.16314e-006
-8.15962e-006
-8.15665e-006
-8.1542e-006
-8.15227e-006
-8.15086e-006
-8.14996e-006
-8.14934e-006
-8.14913e-006
-8.14914e-006
-8.70522e-006
-8.70079e-006
-8.69436e-006
-8.68893e-006
-8.68471e-006
-8.68013e-006
-8.67725e-006
-8.67486e-006
-8.67301e-006
-8.67184e-006
-8.67134e-006
-8.67127e-006
-8.67176e-006
-8.6724e-006
-9.196e-006
-9.1911e-006
-9.18396e-006
-9.17791e-006
-9.17316e-006
-9.16928e-006
-9.16588e-006
-9.1633e-006
-9.16152e-006
-9.1605e-006
-9.16027e-006
-9.1606e-006
-9.16165e-006
-9.1629e-006
-9.65345e-006
-9.64815e-006
-9.64047e-006
-9.63391e-006
-9.62867e-006
-9.62451e-006
-9.62129e-006
-9.6178e-006
-9.61604e-006
-9.61517e-006
-9.61518e-006
-9.61588e-006
-9.61753e-006
-9.61945e-006
-1.00757e-005
-1.00699e-005
-1.00615e-005
-1.00545e-005
-1.00488e-005
-1.00443e-005
-1.00408e-005
-1.00382e-005
-1.00352e-005
-1.00346e-005
-1.00351e-005
-1.00364e-005
-1.00388e-005
-1.00415e-005
-1.0461e-005
-1.04547e-005
-1.04456e-005
-1.0438e-005
-1.0432e-005
-1.04271e-005
-1.04234e-005
-1.04207e-005
-1.04181e-005
-1.04175e-005
-1.04184e-005
-1.04203e-005
-1.04236e-005
-1.04272e-005
-1.08081e-005
-1.08013e-005
-1.07914e-005
-1.07832e-005
-1.07767e-005
-1.07715e-005
-1.07675e-005
-1.07646e-005
-1.07629e-005
-1.07615e-005
-1.07629e-005
-1.07655e-005
-1.07696e-005
-1.0774e-005
-1.11158e-005
-1.11084e-005
-1.10977e-005
-1.10888e-005
-1.10818e-005
-1.10762e-005
-1.10719e-005
-1.10691e-005
-1.10683e-005
-1.10642e-005
-1.10667e-005
-1.10701e-005
-1.10749e-005
-1.108e-005
-1.13831e-005
-1.13752e-005
-1.13635e-005
-1.13538e-005
-1.13462e-005
-1.134e-005
-1.13352e-005
-1.13317e-005
-1.13299e-005
-1.13286e-005
-1.133e-005
-1.13333e-005
-1.13387e-005
-1.13444e-005
-1.16086e-005
-1.16001e-005
-1.15875e-005
-1.1577e-005
-1.15687e-005
-1.1562e-005
-1.15567e-005
-1.15528e-005
-1.15506e-005
-1.15498e-005
-1.15506e-005
-1.15542e-005
-1.156e-005
-1.15663e-005
-1.17912e-005
-1.17819e-005
-1.17683e-005
-1.1757e-005
-1.17481e-005
-1.17408e-005
-1.17351e-005
-1.17308e-005
-1.17284e-005
-1.17282e-005
-1.17275e-005
-1.17316e-005
-1.17378e-005
-1.17445e-005
-1.19298e-005
-1.19199e-005
-1.19054e-005
-1.18932e-005
-1.18835e-005
-1.18757e-005
-1.18693e-005
-1.18646e-005
-1.18621e-005
-1.18627e-005
-1.18591e-005
-1.18641e-005
-1.18707e-005
-1.18776e-005
-1.20233e-005
-1.20128e-005
-1.19972e-005
-1.19842e-005
-1.19738e-005
-1.19653e-005
-1.19583e-005
-1.1953e-005
-1.19496e-005
-1.19489e-005
-1.19478e-005
-1.19513e-005
-1.19571e-005
-1.19636e-005
-1.20704e-005
-1.20593e-005
-1.20428e-005
-1.20289e-005
-1.20177e-005
-1.20084e-005
-1.20008e-005
-1.19947e-005
-1.19905e-005
-1.19887e-005
-1.19882e-005
-1.19901e-005
-1.19949e-005
-1.20006e-005
-1.20699e-005
-1.20582e-005
-1.20408e-005
-1.20261e-005
-1.20141e-005
-1.20039e-005
-1.19953e-005
-1.19883e-005
-1.19831e-005
-1.19802e-005
-1.1979e-005
-1.1979e-005
-1.19823e-005
-1.19866e-005
-1.20195e-005
-1.20072e-005
-1.1989e-005
-1.19735e-005
-1.19606e-005
-1.19495e-005
-1.19399e-005
-1.19318e-005
-1.19254e-005
-1.1921e-005
-1.19185e-005
-1.19167e-005
-1.19179e-005
-1.19203e-005
-1.19172e-005
-1.19043e-005
-1.18853e-005
-1.18689e-005
-1.18551e-005
-1.1843e-005
-1.18324e-005
-1.18231e-005
-1.18153e-005
-1.18092e-005
-1.1805e-005
-1.18012e-005
-1.17998e-005
-1.17999e-005
-1.17608e-005
-1.17473e-005
-1.17275e-005
-1.17102e-005
-1.16954e-005
-1.16822e-005
-1.16704e-005
-1.16598e-005
-1.16504e-005
-1.16427e-005
-1.16364e-005
-1.16302e-005
-1.1626e-005
-1.16235e-005
-1.15483e-005
-1.15341e-005
-1.15135e-005
-1.14951e-005
-1.14793e-005
-1.14649e-005
-1.14518e-005
-1.14397e-005
-1.14288e-005
-1.14191e-005
-1.14109e-005
-1.14017e-005
-1.13946e-005
-1.13894e-005
-1.12777e-005
-1.12628e-005
-1.12411e-005
-1.12217e-005
-1.12047e-005
-1.11891e-005
-1.11746e-005
-1.11611e-005
-1.11484e-005
-1.1137e-005
-1.1127e-005
-1.11136e-005
-1.11041e-005
-1.10962e-005
-1.09478e-005
-1.0932e-005
-1.09092e-005
-1.08885e-005
-1.08703e-005
-1.08534e-005
-1.08374e-005
-1.08223e-005
-1.08078e-005
-1.07944e-005
-1.07822e-005
-1.0766e-005
-1.07535e-005
-1.07429e-005
-1.05575e-005
-1.05408e-005
-1.05166e-005
-1.04946e-005
-1.0475e-005
-1.04565e-005
-1.0439e-005
-1.04221e-005
-1.04058e-005
-1.03901e-005
-1.0375e-005
-1.0358e-005
-1.03419e-005
-1.03286e-005
-1.01065e-005
-1.00888e-005
-1.00631e-005
-1.00396e-005
-1.00184e-005
-9.9984e-006
-9.97917e-006
-9.9606e-006
-9.94245e-006
-9.92478e-006
-9.90772e-006
-9.8872e-006
-9.86867e-006
-9.85318e-006
-9.59496e-006
-9.57612e-006
-9.54878e-006
-9.5237e-006
-9.50093e-006
-9.47928e-006
-9.45837e-006
-9.43805e-006
-9.4181e-006
-9.39834e-006
-9.37859e-006
-9.35751e-006
-9.33586e-006
-9.31807e-006
-9.02356e-006
-9.00349e-006
-8.97436e-006
-8.94759e-006
-8.9232e-006
-8.89992e-006
-8.87739e-006
-8.85543e-006
-8.83381e-006
-8.81228e-006
-8.79057e-006
-8.76793e-006
-8.74399e-006
-8.72425e-006
-8.39361e-006
-8.37223e-006
-8.34118e-006
-8.31258e-006
-8.28645e-006
-8.26145e-006
-8.23723e-006
-8.21365e-006
-8.19045e-006
-8.16738e-006
-8.14408e-006
-8.11988e-006
-8.09414e-006
-8.0727e-006
-7.7066e-006
-7.68377e-006
-7.65063e-006
-7.62007e-006
-7.59209e-006
-7.56528e-006
-7.5393e-006
-7.51405e-006
-7.48931e-006
-7.46483e-006
-7.43993e-006
-7.41457e-006
-7.38743e-006
-7.36466e-006
-6.96454e-006
-6.94009e-006
-6.90461e-006
-6.87194e-006
-6.84195e-006
-6.81319e-006
-6.78533e-006
-6.75833e-006
-6.73185e-006
-6.70579e-006
-6.67988e-006
-6.65329e-006
-6.62506e-006
-6.60152e-006
-6.17106e-006
-6.14439e-006
-6.10603e-006
-6.07084e-006
-6.03863e-006
-6.00768e-006
-5.97772e-006
-5.94871e-006
-5.92048e-006
-5.89283e-006
-5.86552e-006
-5.83777e-006
-5.80884e-006
-5.78526e-006
-5.3268e-006
-5.29864e-006
-5.25741e-006
-5.21966e-006
-5.185e-006
-5.15171e-006
-5.1195e-006
-5.08835e-006
-5.05812e-006
-5.02868e-006
-4.99991e-006
-4.97101e-006
-4.94172e-006
-4.91898e-006
-4.43906e-006
-4.40886e-006
-4.36429e-006
-4.32363e-006
-4.28628e-006
-4.25039e-006
-4.21569e-006
-4.18219e-006
-4.1498e-006
-4.11841e-006
-4.08789e-006
-4.05777e-006
-4.02837e-006
-4.00713e-006
-3.51231e-006
-3.47987e-006
-3.43179e-006
-3.38807e-006
-3.34787e-006
-3.30919e-006
-3.27177e-006
-3.23561e-006
-3.20066e-006
-3.16694e-006
-3.13452e-006
-3.10297e-006
-3.07325e-006
-3.05331e-006
-2.55244e-006
-2.51767e-006
-2.46604e-006
-2.41917e-006
-2.376e-006
-2.33434e-006
-2.29395e-006
-2.25488e-006
-2.2171e-006
-2.18074e-006
-2.14598e-006
-2.11255e-006
-2.08196e-006
-2.06271e-006
-1.56486e-006
-1.52764e-006
-1.47238e-006
-1.42222e-006
-1.37591e-006
-1.33106e-006
-1.28746e-006
-1.24516e-006
-1.20421e-006
-1.16482e-006
-1.12729e-006
-1.09146e-006
-1.05931e-006
-1.03984e-006
-5.54676e-007
-5.14872e-007
-4.55855e-007
-4.02149e-007
-3.52387e-007
-3.04035e-007
-2.56886e-007
-2.11042e-007
-1.66587e-007
-1.23809e-007
-8.31271e-008
-4.44491e-008
-1.01662e-008
1.02703e-008
4.73041e-007
5.15631e-007
5.78564e-007
6.36067e-007
6.89599e-007
7.41837e-007
7.92937e-007
8.42754e-007
8.9115e-007
9.37764e-007
9.82088e-007
1.02413e-006
1.06111e-006
1.0831e-006
1.51264e-006
1.55828e-006
1.62535e-006
1.68691e-006
1.74452e-006
1.80104e-006
1.85656e-006
1.9109e-006
1.96387e-006
2.01503e-006
2.0638e-006
2.11003e-006
2.15057e-006
2.17483e-006
2.55819e-006
2.60716e-006
2.67861e-006
2.74457e-006
2.80663e-006
2.86791e-006
2.92845e-006
2.98802e-006
3.0464e-006
3.10311e-006
3.15742e-006
3.20902e-006
3.25426e-006
3.2817e-006
3.60438e-006
3.65706e-006
3.73329e-006
3.80409e-006
3.87112e-006
3.93778e-006
4.00405e-006
4.06967e-006
4.13444e-006
4.19779e-006
4.25885e-006
4.31702e-006
4.36803e-006
4.39938e-006
4.64636e-006
4.70331e-006
4.78497e-006
4.86127e-006
4.93397e-006
5.00677e-006
5.07961e-006
5.15222e-006
5.22437e-006
5.29544e-006
5.36434e-006
5.43007e-006
5.48749e-006
5.52288e-006
5.67868e-006
5.7406e-006
5.82856e-006
5.91116e-006
5.99036e-006
6.07023e-006
6.15061e-006
6.23124e-006
6.31187e-006
6.39175e-006
6.46955e-006
6.54369e-006
6.60785e-006
6.64689e-006
6.69472e-006
6.7625e-006
6.85777e-006
6.94756e-006
7.03412e-006
7.12202e-006
7.21098e-006
7.30075e-006
7.39104e-006
7.48098e-006
7.56889e-006
7.65246e-006
7.72372e-006
7.76592e-006
7.68695e-006
7.76163e-006
7.86541e-006
7.96342e-006
8.05831e-006
8.15527e-006
8.25395e-006
8.35408e-006
8.45535e-006
8.55672e-006
8.65611e-006
8.7503e-006
8.82915e-006
8.87398e-006
8.64767e-006
8.7305e-006
8.84425e-006
8.95177e-006
9.05621e-006
9.16351e-006
9.27319e-006
9.385e-006
9.49862e-006
9.61284e-006
9.72505e-006
9.83099e-006
9.91774e-006
9.96437e-006
9.56903e-006
9.66149e-006
9.78697e-006
9.90558e-006
1.0021e-005
1.01402e-005
1.02624e-005
1.03874e-005
1.05148e-005
1.06433e-005
1.07696e-005
1.08883e-005
1.0983e-005
1.10302e-005
1.04424e-005
1.05463e-005
1.06855e-005
1.08168e-005
1.09449e-005
1.10777e-005
1.1214e-005
1.13538e-005
1.14967e-005
1.16411e-005
1.17831e-005
1.19158e-005
1.20186e-005
1.20651e-005
1.12588e-005
1.13761e-005
1.15314e-005
1.16774e-005
1.18198e-005
1.19678e-005
1.21202e-005
1.22767e-005
1.24371e-005
1.25994e-005
1.27591e-005
1.29075e-005
1.30191e-005
1.3064e-005
1.20084e-005
1.21417e-005
1.23158e-005
1.24788e-005
1.26375e-005
1.28031e-005
1.29736e-005
1.3149e-005
1.33291e-005
1.35117e-005
1.36914e-005
1.38575e-005
1.39785e-005
1.40207e-005
1.26823e-005
1.28342e-005
1.30301e-005
1.32127e-005
1.33904e-005
1.3576e-005
1.37673e-005
1.39641e-005
1.41663e-005
1.43716e-005
1.45736e-005
1.47594e-005
1.48907e-005
1.49288e-005
1.32714e-005
1.34451e-005
1.36663e-005
1.38712e-005
1.40705e-005
1.42789e-005
1.44936e-005
1.47145e-005
1.49416e-005
1.51723e-005
1.53993e-005
1.56071e-005
1.57495e-005
1.57827e-005
1.37663e-005
1.39655e-005
1.42158e-005
1.44463e-005
1.46698e-005
1.4904e-005
1.51449e-005
1.53929e-005
1.56479e-005
1.59072e-005
1.61624e-005
1.6395e-005
1.65499e-005
1.65774e-005
1.41581e-005
1.43868e-005
1.46704e-005
1.49301e-005
1.51812e-005
1.54444e-005
1.57151e-005
1.59934e-005
1.62797e-005
1.6571e-005
1.68578e-005
1.71184e-005
1.72875e-005
1.73082e-005
1.44403e-005
1.47028e-005
1.50245e-005
1.53173e-005
1.55997e-005
1.58959e-005
1.61999e-005
1.65121e-005
1.68333e-005
1.71602e-005
1.74822e-005
1.77738e-005
1.79582e-005
1.79705e-005
1.46093e-005
1.49105e-005
1.52753e-005
1.56054e-005
1.59228e-005
1.62559e-005
1.6597e-005
1.69469e-005
1.73065e-005
1.76727e-005
1.80335e-005
1.83591e-005
1.85598e-005
1.85615e-005
1.46634e-005
1.50087e-005
1.54222e-005
1.57941e-005
1.61503e-005
1.6524e-005
1.69061e-005
1.72972e-005
1.76989e-005
1.81081e-005
1.85114e-005
1.88742e-005
1.90922e-005
1.90805e-005
1.46026e-005
1.49978e-005
1.54661e-005
1.58845e-005
1.62835e-005
1.6702e-005
1.71289e-005
1.75649e-005
1.80124e-005
1.84681e-005
1.89175e-005
1.93207e-005
1.95563e-005
1.95279e-005
1.44292e-005
1.48803e-005
1.54099e-005
1.58799e-005
1.63263e-005
1.6794e-005
1.72696e-005
1.77543e-005
1.8251e-005
1.8757e-005
1.92558e-005
1.9702e-005
1.99553e-005
1.9906e-005
1.41489e-005
1.4662e-005
1.52593e-005
1.57861e-005
1.62845e-005
1.6806e-005
1.73345e-005
1.78717e-005
1.84214e-005
1.89811e-005
1.95328e-005
2.00246e-005
2.02952e-005
2.02202e-005
1.37726e-005
1.43541e-005
1.50255e-005
1.5614e-005
1.61684e-005
1.67478e-005
1.73333e-005
1.79267e-005
1.85328e-005
1.91495e-005
1.97572e-005
2.02969e-005
2.0584e-005
2.0478e-005
1.33139e-005
1.39705e-005
1.47231e-005
1.53782e-005
1.59924e-005
1.66335e-005
1.72792e-005
1.79318e-005
1.85971e-005
1.92736e-005
1.994e-005
2.05293e-005
2.08316e-005
2.06887e-005
1.27885e-005
1.35261e-005
1.43661e-005
1.50928e-005
1.5771e-005
1.64775e-005
1.71868e-005
1.79014e-005
1.86284e-005
1.93671e-005
2.00941e-005
2.07344e-005
2.10501e-005
2.08643e-005
1.2217e-005
1.30412e-005
1.39744e-005
1.47769e-005
1.55224e-005
1.62976e-005
1.70732e-005
1.7852e-005
1.86427e-005
1.94452e-005
2.02346e-005
2.09266e-005
2.12537e-005
2.10192e-005
1.16222e-005
1.2538e-005
1.35694e-005
1.44513e-005
1.52671e-005
1.61137e-005
1.69577e-005
1.78023e-005
1.8658e-005
1.95256e-005
2.0378e-005
2.11219e-005
2.14579e-005
2.11688e-005
1.10279e-005
1.20394e-005
1.31731e-005
1.41371e-005
1.50253e-005
1.59453e-005
1.68594e-005
1.77712e-005
1.86927e-005
1.96259e-005
2.05418e-005
2.13371e-005
2.16791e-005
2.133e-005
1.04588e-005
1.15692e-005
1.28084e-005
1.38565e-005
1.4818e-005
1.58124e-005
1.67973e-005
1.77767e-005
1.87642e-005
1.97628e-005
2.07418e-005
2.15874e-005
2.19327e-005
2.15185e-005
9.93733e-006
1.11477e-005
1.24936e-005
1.36267e-005
1.46623e-005
1.57314e-005
1.67871e-005
1.78338e-005
1.88868e-005
1.99501e-005
2.09908e-005
2.18851e-005
2.22305e-005
2.17479e-005
9.4872e-006
1.07969e-005
1.22487e-005
1.3466e-005
1.4575e-005
1.5718e-005
1.68432e-005
1.79554e-005
1.90716e-005
2.01972e-005
2.12973e-005
2.22374e-005
2.258e-005
2.2027e-005
9.13157e-006
1.05383e-005
1.20935e-005
1.33925e-005
1.45723e-005
1.57862e-005
1.69777e-005
1.81518e-005
1.93272e-005
2.05106e-005
2.16656e-005
2.26471e-005
2.29833e-005
2.23591e-005
8.89319e-006
1.0392e-005
1.20452e-005
1.34213e-005
1.46674e-005
1.59475e-005
1.72005e-005
1.8431e-005
1.96597e-005
2.08945e-005
2.20977e-005
2.31143e-005
2.34394e-005
2.2744e-005
8.79494e-006
1.03786e-005
1.2122e-005
1.35684e-005
1.48743e-005
1.62139e-005
1.75213e-005
1.88013e-005
2.00756e-005
2.13536e-005
2.25962e-005
2.36394e-005
2.39478e-005
2.31825e-005
8.85822e-006
1.05172e-005
1.23406e-005
1.38489e-005
1.52068e-005
1.65977e-005
1.79512e-005
1.9272e-005
2.05831e-005
2.18947e-005
2.31669e-005
2.42275e-005
2.45136e-005
2.36812e-005
9.1015e-006
1.08232e-005
1.27141e-005
1.42747e-005
1.56761e-005
1.71092e-005
1.84998e-005
1.98523e-005
2.11906e-005
2.2526e-005
2.3818e-005
2.48869e-005
2.51466e-005
2.42523e-005
9.54445e-006
1.13133e-005
1.32546e-005
1.48545e-005
1.62894e-005
1.77548e-005
1.91732e-005
2.05484e-005
2.19047e-005
2.32547e-005
2.45573e-005
2.56269e-005
2.58577e-005
2.49097e-005
1.02104e-005
1.201e-005
1.39849e-005
1.56096e-005
1.70641e-005
1.85484e-005
1.99825e-005
2.13691e-005
2.2733e-005
2.40871e-005
2.539e-005
2.64518e-005
2.66521e-005
2.56607e-005
1.11094e-005
1.29201e-005
1.49086e-005
1.65434e-005
1.80053e-005
1.94961e-005
2.0934e-005
2.2321e-005
2.36813e-005
2.50282e-005
2.63203e-005
2.73644e-005
2.75323e-005
2.65084e-005
1.22534e-005
1.40534e-005
1.60315e-005
1.76579e-005
1.91128e-005
2.05963e-005
2.20256e-005
2.34017e-005
2.47479e-005
2.60772e-005
2.73477e-005
2.83653e-005
2.84999e-005
2.74559e-005
1.36449e-005
1.54131e-005
1.73613e-005
1.89631e-005
2.03945e-005
2.1854e-005
2.32592e-005
2.46103e-005
2.59294e-005
2.72286e-005
2.84661e-005
2.94485e-005
2.95507e-005
2.8501e-005
1.52699e-005
1.69795e-005
1.88677e-005
2.04256e-005
2.18217e-005
2.32452e-005
2.46153e-005
2.59307e-005
2.72121e-005
2.84706e-005
2.96652e-005
3.06051e-005
3.06779e-005
2.96395e-005
1.71285e-005
1.87562e-005
2.05586e-005
2.20491e-005
2.3388e-005
2.47564e-005
2.60752e-005
2.73421e-005
2.85754e-005
2.97842e-005
3.09279e-005
3.18208e-005
3.18708e-005
3.0864e-005
1.91889e-005
2.0712e-005
2.24057e-005
2.38107e-005
2.50751e-005
2.63697e-005
2.76205e-005
2.88246e-005
2.9998e-005
3.11474e-005
3.2233e-005
3.30758e-005
3.31115e-005
3.21575e-005
2.14025e-005
2.27955e-005
2.43513e-005
2.56518e-005
2.68301e-005
2.80394e-005
2.9212e-005
3.03442e-005
3.14494e-005
3.25318e-005
3.3552e-005
3.43399e-005
3.43677e-005
3.34863e-005
2.37184e-005
2.49611e-005
2.63599e-005
2.75396e-005
2.8616e-005
2.97264e-005
3.08101e-005
3.18623e-005
3.28925e-005
3.39015e-005
3.48495e-005
3.55778e-005
3.56043e-005
3.48157e-005
2.60561e-005
2.71286e-005
2.83461e-005
2.939e-005
3.03568e-005
3.13612e-005
3.23512e-005
3.33205e-005
3.42743e-005
3.52085e-005
3.60833e-005
3.67534e-005
3.67913e-005
3.61186e-005
2.83124e-005
2.92037e-005
3.0231e-005
3.11328e-005
3.19842e-005
3.28789e-005
3.3774e-005
3.46618e-005
3.55418e-005
3.64049e-005
3.72109e-005
3.78299e-005
3.78947e-005
3.73585e-005
3.03361e-005
3.10416e-005
3.18802e-005
3.26504e-005
3.34007e-005
3.41992e-005
3.50124e-005
3.58308e-005
3.66484e-005
3.74503e-005
3.81955e-005
3.87695e-005
3.88668e-005
3.84708e-005
3.19574e-005
3.24844e-005
3.31476e-005
3.3805e-005
3.4481e-005
3.52132e-005
3.59746e-005
3.67521e-005
3.75333e-005
3.82978e-005
3.9003e-005
3.95474e-005
3.96829e-005
3.94205e-005
3.30011e-005
3.33997e-005
3.39736e-005
3.45957e-005
3.52614e-005
3.59889e-005
3.6758e-005
3.75483e-005
3.83358e-005
3.90879e-005
3.97557e-005
4.02457e-005
4.03599e-005
4.01481e-005
-3.34107e-007
-3.3415e-007
-3.34233e-007
-3.34213e-007
-3.34216e-007
-3.34218e-007
-3.34207e-007
-3.34182e-007
-3.34151e-007
-3.34113e-007
-3.34051e-007
-3.33961e-007
-3.33875e-007
-3.33752e-007
-1.02296e-006
-1.02284e-006
-1.02251e-006
-1.02213e-006
-1.02177e-006
-1.02142e-006
-1.02108e-006
-1.02078e-006
-1.02051e-006
-1.02027e-006
-1.02006e-006
-1.01987e-006
-1.01971e-006
-1.01956e-006
-1.73197e-006
-1.73148e-006
-1.73057e-006
-1.72984e-006
-1.72924e-006
-1.72871e-006
-1.72824e-006
-1.72781e-006
-1.72741e-006
-1.72705e-006
-1.72672e-006
-1.72638e-006
-1.72596e-006
-1.72551e-006
-2.43531e-006
-2.43455e-006
-2.43339e-006
-2.43236e-006
-2.4315e-006
-2.43078e-006
-2.43017e-006
-2.42963e-006
-2.42915e-006
-2.4287e-006
-2.42825e-006
-2.42775e-006
-2.42713e-006
-2.42647e-006
-3.12904e-006
-3.12788e-006
-3.12623e-006
-3.12477e-006
-3.12353e-006
-3.12245e-006
-3.1215e-006
-3.12067e-006
-3.11995e-006
-3.1193e-006
-3.11868e-006
-3.11803e-006
-3.1173e-006
-3.1166e-006
-3.81359e-006
-3.81212e-006
-3.81001e-006
-3.8082e-006
-3.80668e-006
-3.80536e-006
-3.8042e-006
-3.8032e-006
-3.80234e-006
-3.8016e-006
-3.80096e-006
-3.80036e-006
-3.79971e-006
-3.79906e-006
-4.48713e-006
-4.48539e-006
-4.48287e-006
-4.4807e-006
-4.47891e-006
-4.47738e-006
-4.47608e-006
-4.475e-006
-4.47411e-006
-4.4734e-006
-4.47286e-006
-4.4724e-006
-4.47192e-006
-4.47138e-006
-5.14673e-006
-5.14473e-006
-5.14181e-006
-5.13931e-006
-5.13726e-006
-5.13553e-006
-5.13408e-006
-5.1329e-006
-5.13199e-006
-5.13134e-006
-5.13093e-006
-5.13066e-006
-5.13043e-006
-5.1301e-006
-5.78951e-006
-5.78723e-006
-5.78393e-006
-5.78114e-006
-5.77888e-006
-5.77701e-006
-5.7755e-006
-5.77432e-006
-5.77348e-006
-5.77297e-006
-5.7728e-006
-5.77284e-006
-5.77302e-006
-5.77305e-006
-6.41282e-006
-6.41023e-006
-6.40653e-006
-6.40342e-006
-6.40098e-006
-6.39901e-006
-6.39746e-006
-6.39633e-006
-6.39561e-006
-6.39535e-006
-6.39555e-006
-6.3961e-006
-6.3969e-006
-6.39744e-006
-7.01426e-006
-7.01136e-006
-7.00726e-006
-7.00382e-006
-7.00114e-006
-6.999e-006
-6.99737e-006
-6.99625e-006
-6.99565e-006
-6.99563e-006
-6.99622e-006
-6.99727e-006
-6.99868e-006
-6.99972e-006
-7.59119e-006
-7.58792e-006
-7.58338e-006
-7.57963e-006
-7.57673e-006
-7.57449e-006
-7.57284e-006
-7.57179e-006
-7.57137e-006
-7.57163e-006
-7.57262e-006
-7.57419e-006
-7.57624e-006
-7.57783e-006
-8.14156e-006
-8.13755e-006
-8.13244e-006
-8.12831e-006
-8.12523e-006
-8.1229e-006
-8.12127e-006
-8.12034e-006
-8.12015e-006
-8.12081e-006
-8.12239e-006
-8.12472e-006
-8.12773e-006
-8.13011e-006
-8.66084e-006
-8.65684e-006
-8.65147e-006
-8.6471e-006
-8.64386e-006
-8.64141e-006
-8.63982e-006
-8.63905e-006
-8.63917e-006
-8.64033e-006
-8.64262e-006
-8.64588e-006
-8.65e-006
-8.6533e-006
-9.14915e-006
-9.14484e-006
-9.13904e-006
-9.13435e-006
-9.13092e-006
-9.1282e-006
-9.12658e-006
-9.12591e-006
-9.12629e-006
-9.12789e-006
-9.13083e-006
-9.13492e-006
-9.14006e-006
-9.14422e-006
-9.60414e-006
-9.59948e-006
-9.59322e-006
-9.58814e-006
-9.58443e-006
-9.58182e-006
-9.58011e-006
-9.57928e-006
-9.57986e-006
-9.58184e-006
-9.58538e-006
-9.59026e-006
-9.59644e-006
-9.60151e-006
-1.00243e-005
-1.00192e-005
-1.00124e-005
-1.00069e-005
-1.00029e-005
-1.00001e-005
-9.99845e-006
-9.99775e-006
-9.99828e-006
-1.00008e-005
-1.0005e-005
-1.00109e-005
-1.00183e-005
-1.00244e-005
-1.04075e-005
-1.0402e-005
-1.03946e-005
-1.03886e-005
-1.03843e-005
-1.03814e-005
-1.03799e-005
-1.03801e-005
-1.03792e-005
-1.03826e-005
-1.0388e-005
-1.03949e-005
-1.04037e-005
-1.04109e-005
-1.07526e-005
-1.07466e-005
-1.07386e-005
-1.07321e-005
-1.07275e-005
-1.07242e-005
-1.07224e-005
-1.07222e-005
-1.07235e-005
-1.07262e-005
-1.07323e-005
-1.07403e-005
-1.07503e-005
-1.07586e-005
-1.10582e-005
-1.10517e-005
-1.10431e-005
-1.10361e-005
-1.1031e-005
-1.10275e-005
-1.10255e-005
-1.10254e-005
-1.10278e-005
-1.10284e-005
-1.10357e-005
-1.10449e-005
-1.10561e-005
-1.10654e-005
-1.13232e-005
-1.13162e-005
-1.13068e-005
-1.12991e-005
-1.12935e-005
-1.12896e-005
-1.12873e-005
-1.12868e-005
-1.12885e-005
-1.12918e-005
-1.12983e-005
-1.1308e-005
-1.13202e-005
-1.13304e-005
-1.15462e-005
-1.15387e-005
-1.15284e-005
-1.15201e-005
-1.15139e-005
-1.15096e-005
-1.1507e-005
-1.15062e-005
-1.15078e-005
-1.15121e-005
-1.15177e-005
-1.15283e-005
-1.15415e-005
-1.15524e-005
-1.1726e-005
-1.17179e-005
-1.17067e-005
-1.16977e-005
-1.1691e-005
-1.16862e-005
-1.16832e-005
-1.16822e-005
-1.16839e-005
-1.16894e-005
-1.16925e-005
-1.17044e-005
-1.17186e-005
-1.17301e-005
-1.18615e-005
-1.18528e-005
-1.18409e-005
-1.18311e-005
-1.18238e-005
-1.18184e-005
-1.18149e-005
-1.18135e-005
-1.18146e-005
-1.18192e-005
-1.1825e-005
-1.18359e-005
-1.18501e-005
-1.18619e-005
-1.19516e-005
-1.19423e-005
-1.19295e-005
-1.1919e-005
-1.19111e-005
-1.19051e-005
-1.19011e-005
-1.18991e-005
-1.18998e-005
-1.19037e-005
-1.19104e-005
-1.19203e-005
-1.19341e-005
-1.19456e-005
-1.19951e-005
-1.19852e-005
-1.19716e-005
-1.19603e-005
-1.19517e-005
-1.1945e-005
-1.19403e-005
-1.19377e-005
-1.19377e-005
-1.19409e-005
-1.19476e-005
-1.19556e-005
-1.19686e-005
-1.19794e-005
-1.19904e-005
-1.19801e-005
-1.19657e-005
-1.19537e-005
-1.19443e-005
-1.19369e-005
-1.19314e-005
-1.19279e-005
-1.19269e-005
-1.19294e-005
-1.19361e-005
-1.19391e-005
-1.19516e-005
-1.19611e-005
-1.19356e-005
-1.19248e-005
-1.19096e-005
-1.18969e-005
-1.18867e-005
-1.18785e-005
-1.18721e-005
-1.18676e-005
-1.18653e-005
-1.18662e-005
-1.18708e-005
-1.18733e-005
-1.18826e-005
-1.18897e-005
-1.18288e-005
-1.18175e-005
-1.18016e-005
-1.17881e-005
-1.17771e-005
-1.17679e-005
-1.17605e-005
-1.17548e-005
-1.17512e-005
-1.17501e-005
-1.17518e-005
-1.17542e-005
-1.17593e-005
-1.17634e-005
-1.16678e-005
-1.16559e-005
-1.16393e-005
-1.1625e-005
-1.16131e-005
-1.1603e-005
-1.15944e-005
-1.15874e-005
-1.15823e-005
-1.15791e-005
-1.15783e-005
-1.15783e-005
-1.15796e-005
-1.15804e-005
-1.14507e-005
-1.14382e-005
-1.14208e-005
-1.14055e-005
-1.13927e-005
-1.13815e-005
-1.13717e-005
-1.13633e-005
-1.13564e-005
-1.13511e-005
-1.13476e-005
-1.13446e-005
-1.13419e-005
-1.13393e-005
-1.11757e-005
-1.11627e-005
-1.11442e-005
-1.1128e-005
-1.11141e-005
-1.11017e-005
-1.10905e-005
-1.10806e-005
-1.10719e-005
-1.10644e-005
-1.10582e-005
-1.10519e-005
-1.10452e-005
-1.10392e-005
-1.08416e-005
-1.08278e-005
-1.08083e-005
-1.07909e-005
-1.07758e-005
-1.07621e-005
-1.07495e-005
-1.0738e-005
-1.07274e-005
-1.07176e-005
-1.07086e-005
-1.06991e-005
-1.06884e-005
-1.06791e-005
-1.04475e-005
-1.04329e-005
-1.0412e-005
-1.03934e-005
-1.03769e-005
-1.03618e-005
-1.03476e-005
-1.03344e-005
-1.03218e-005
-1.03097e-005
-1.0298e-005
-1.02856e-005
-1.02711e-005
-1.02585e-005
-9.99285e-006
-9.97733e-006
-9.95512e-006
-9.93507e-006
-9.91719e-006
-9.9005e-006
-9.88473e-006
-9.86972e-006
-9.85522e-006
-9.84095e-006
-9.82667e-006
-9.81111e-006
-9.79333e-006
-9.77778e-006
-9.47793e-006
-9.46138e-006
-9.43766e-006
-9.41613e-006
-9.39678e-006
-9.37855e-006
-9.36118e-006
-9.34448e-006
-9.32815e-006
-9.31186e-006
-9.29522e-006
-9.27714e-006
-9.25636e-006
-9.23807e-006
-8.90343e-006
-8.88578e-006
-8.86042e-006
-8.83728e-006
-8.81635e-006
-8.79652e-006
-8.77754e-006
-8.75922e-006
-8.74122e-006
-8.72315e-006
-8.70457e-006
-8.68426e-006
-8.66101e-006
-8.64036e-006
-8.27044e-006
-8.25159e-006
-8.2245e-006
-8.19967e-006
-8.17708e-006
-8.15556e-006
-8.13489e-006
-8.11489e-006
-8.09522e-006
-8.07558e-006
-8.0555e-006
-8.03287e-006
-8.00792e-006
-7.98544e-006
-7.58033e-006
-7.56015e-006
-7.53114e-006
-7.50445e-006
-7.48005e-006
-7.45674e-006
-7.43427e-006
-7.41252e-006
-7.39123e-006
-7.37005e-006
-7.34789e-006
-7.32474e-006
-7.29826e-006
-7.27441e-006
-6.83524e-006
-6.8135e-006
-6.78232e-006
-6.75359e-006
-6.72721e-006
-6.70195e-006
-6.6776e-006
-6.65398e-006
-6.63077e-006
-6.60792e-006
-6.58487e-006
-6.56056e-006
-6.53322e-006
-6.50872e-006
-6.03968e-006
-6.01517e-006
-5.98107e-006
-5.94989e-006
-5.92122e-006
-5.89371e-006
-5.86718e-006
-5.84158e-006
-5.81668e-006
-5.79225e-006
-5.76796e-006
-5.74281e-006
-5.71511e-006
-5.69061e-006
-5.19077e-006
-5.16562e-006
-5.12919e-006
-5.09565e-006
-5.06472e-006
-5.035e-006
-5.00633e-006
-4.9787e-006
-4.952e-006
-4.92606e-006
-4.90067e-006
-4.87486e-006
-4.84711e-006
-4.82321e-006
-4.29909e-006
-4.27204e-006
-4.23252e-006
-4.19624e-006
-4.16279e-006
-4.13066e-006
-4.0997e-006
-4.06998e-006
-4.04143e-006
-4.01398e-006
-3.98748e-006
-3.96103e-006
-3.93335e-006
-3.91036e-006
-3.36764e-006
-3.33848e-006
-3.29573e-006
-3.2566e-006
-3.22048e-006
-3.1858e-006
-3.15242e-006
-3.12045e-006
-3.08991e-006
-3.06079e-006
-3.03307e-006
-3.00584e-006
-2.97807e-006
-2.95581e-006
-2.40189e-006
-2.37052e-006
-2.32447e-006
-2.28239e-006
-2.24349e-006
-2.20608e-006
-2.17003e-006
-2.13552e-006
-2.10263e-006
-2.07146e-006
-2.04209e-006
-2.01367e-006
-1.98536e-006
-1.96334e-006
-1.40699e-006
-1.37333e-006
-1.32394e-006
-1.27874e-006
-1.23683e-006
-1.19641e-006
-1.15738e-006
-1.11996e-006
-1.08431e-006
-1.05065e-006
-1.01918e-006
-9.89144e-007
-9.5985e-007
-9.37466e-007
-3.87631e-007
-3.51535e-007
-2.98699e-007
-2.50201e-007
-2.05016e-007
-1.61259e-007
-1.1889e-007
-7.81854e-008
-3.93943e-008
-2.87971e-009
3.10087e-008
6.29645e-008
9.3556e-008
1.16766e-007
6.51486e-007
6.90242e-007
7.46736e-007
7.98779e-007
8.47506e-007
8.94914e-007
9.40974e-007
9.85322e-007
1.0276e-006
1.06732e-006
1.10397e-006
1.13816e-006
1.1704e-006
1.19483e-006
1.70506e-006
1.74673e-006
1.80713e-006
1.86302e-006
1.91562e-006
1.96705e-006
2.0172e-006
2.06563e-006
2.11187e-006
2.15531e-006
2.19529e-006
2.23232e-006
2.26686e-006
2.2931e-006
2.76765e-006
2.81251e-006
2.87708e-006
2.93711e-006
2.99395e-006
3.04984e-006
3.10458e-006
3.15764e-006
3.20848e-006
3.25637e-006
3.3005e-006
3.34124e-006
3.37899e-006
3.4078e-006
3.83436e-006
3.88277e-006
3.95188e-006
4.01643e-006
4.07791e-006
4.13873e-006
4.19859e-006
4.25687e-006
4.31297e-006
4.36602e-006
4.41507e-006
4.4603e-006
4.50204e-006
4.53405e-006
4.90055e-006
4.95307e-006
5.02732e-006
5.09692e-006
5.16359e-006
5.2299e-006
5.29544e-006
5.35952e-006
5.42142e-006
5.48016e-006
5.53461e-006
5.58472e-006
5.63066e-006
5.66594e-006
5.96104e-006
6.01837e-006
6.09858e-006
6.17395e-006
6.2465e-006
6.319e-006
6.39089e-006
6.46139e-006
6.52964e-006
6.59452e-006
6.65464e-006
6.70967e-006
6.75955e-006
6.79763e-006
7.00963e-006
7.07263e-006
7.15974e-006
7.24172e-006
7.32095e-006
7.40047e-006
7.47953e-006
7.55721e-006
7.6325e-006
7.70405e-006
7.77017e-006
7.83015e-006