/*--------------------------------*- C++ -*----------------------------------*\
| =========                 |                                                 |
| \\      /  F ield         | OpenFOAM: The Open Source CFD Toolbox           |
|  \\    /   O peration     | Version:  5.x                                   |
|   \\  /    A nd           | Web:      www.OpenFOAM.org                      |
|    \\/     M anipulation  |                                                 |
\*---------------------------------------------------------------------------*/
/*   Windows 32 and 64 bit porting by blueCAPE: http://www.bluecape.com.pt   *\
|  Based on Windows porting (2.0.x v4) by Symscape: http://www.symscape.com   |
\*---------------------------------------------------------------------------*/
FoamFile
{
    version     2.0;
    format      ascii;
    class       volScalarField;
    location    "0.6";
    object      p;
}
// * * * * * * * * * * * * * * * * * * * * * * * * * * * * * * * * * * * * * //

dimensions      [0 2 -2 0 0 0 0];

internalField   nonuniform List<scalar> 
141075
(
-4.97755e-007
-4.9848e-007
-4.98595e-007
-4.98745e-007
-4.98786e-007
-4.98728e-007
-4.98613e-007
-4.98468e-007
-4.98308e-007
-4.98143e-007
-4.97968e-007
-4.9776e-007
-4.97488e-007
-4.97064e-007
-1.51649e-006
-1.51689e-006
-1.51661e-006
-1.51638e-006
-1.51608e-006
-1.51567e-006
-1.51517e-006
-1.51462e-006
-1.51406e-006
-1.51351e-006
-1.51299e-006
-1.51249e-006
-1.51201e-006
-1.51155e-006
-2.56743e-006
-2.56691e-006
-2.56608e-006
-2.56523e-006
-2.5643e-006
-2.56327e-006
-2.56217e-006
-2.56102e-006
-2.55985e-006
-2.55871e-006
-2.55763e-006
-2.55664e-006
-2.5558e-006
-2.55518e-006
-3.62532e-006
-3.6245e-006
-3.62324e-006
-3.62185e-006
-3.6203e-006
-3.61861e-006
-3.61683e-006
-3.61501e-006
-3.61321e-006
-3.6115e-006
-3.6099e-006
-3.60847e-006
-3.60727e-006
-3.60645e-006
-4.69278e-006
-4.69171e-006
-4.69006e-006
-4.68824e-006
-4.68622e-006
-4.68398e-006
-4.68161e-006
-4.67918e-006
-4.6768e-006
-4.67454e-006
-4.67247e-006
-4.67065e-006
-4.66915e-006
-4.66819e-006
-5.7731e-006
-5.77174e-006
-5.76966e-006
-5.7674e-006
-5.76491e-006
-5.76218e-006
-5.75928e-006
-5.75632e-006
-5.75342e-006
-5.75067e-006
-5.74815e-006
-5.7459e-006
-5.744e-006
-5.74277e-006
-6.86999e-006
-6.86839e-006
-6.86591e-006
-6.86324e-006
-6.86031e-006
-6.85709e-006
-6.85369e-006
-6.85022e-006
-6.84681e-006
-6.84357e-006
-6.84056e-006
-6.83783e-006
-6.83545e-006
-6.83388e-006
-7.98561e-006
-7.98379e-006
-7.98098e-006
-7.97789e-006
-7.97447e-006
-7.97073e-006
-7.96678e-006
-7.96277e-006
-7.95883e-006
-7.95509e-006
-7.9516e-006
-7.9484e-006
-7.94555e-006
-7.9436e-006
-9.12208e-006
-9.12001e-006
-9.11683e-006
-9.11334e-006
-9.10949e-006
-9.10527e-006
-9.10083e-006
-9.09633e-006
-9.09193e-006
-9.08776e-006
-9.08387e-006
-9.08027e-006
-9.07696e-006
-9.07461e-006
-1.02819e-005
-1.02796e-005
-1.0276e-005
-1.02721e-005
-1.02678e-005
-1.02632e-005
-1.02583e-005
-1.02533e-005
-1.02484e-005
-1.02438e-005
-1.02395e-005
-1.02355e-005
-1.02316e-005
-1.02287e-005
-1.14674e-005
-1.14648e-005
-1.14609e-005
-1.14566e-005
-1.14519e-005
-1.14468e-005
-1.14415e-005
-1.1436e-005
-1.14307e-005
-1.14257e-005
-1.14209e-005
-1.14163e-005
-1.14117e-005
-1.14081e-005
-1.26805e-005
-1.26777e-005
-1.26734e-005
-1.26688e-005
-1.26637e-005
-1.26582e-005
-1.26524e-005
-1.26465e-005
-1.26408e-005
-1.26354e-005
-1.26302e-005
-1.26251e-005
-1.262e-005
-1.26158e-005
-1.39229e-005
-1.39198e-005
-1.39152e-005
-1.39102e-005
-1.39048e-005
-1.38988e-005
-1.38926e-005
-1.38864e-005
-1.38803e-005
-1.38745e-005
-1.3869e-005
-1.38637e-005
-1.38579e-005
-1.38531e-005
-1.51964e-005
-1.5193e-005
-1.51881e-005
-1.51827e-005
-1.51768e-005
-1.51705e-005
-1.51638e-005
-1.51572e-005
-1.51507e-005
-1.51446e-005
-1.51387e-005
-1.51328e-005
-1.51264e-005
-1.51209e-005
-1.65025e-005
-1.6499e-005
-1.64936e-005
-1.64879e-005
-1.64817e-005
-1.64749e-005
-1.64678e-005
-1.64607e-005
-1.64538e-005
-1.64472e-005
-1.64408e-005
-1.64344e-005
-1.64272e-005
-1.64209e-005
-1.78428e-005
-1.7839e-005
-1.78334e-005
-1.78273e-005
-1.78206e-005
-1.78135e-005
-1.78059e-005
-1.77984e-005
-1.7791e-005
-1.7784e-005
-1.77772e-005
-1.77703e-005
-1.77625e-005
-1.77555e-005
-1.92183e-005
-1.92143e-005
-1.92082e-005
-1.92018e-005
-1.91948e-005
-1.91872e-005
-1.91793e-005
-1.91713e-005
-1.91636e-005
-1.91562e-005
-1.9149e-005
-1.91416e-005
-1.91333e-005
-1.91257e-005
-2.06298e-005
-2.06255e-005
-2.06191e-005
-2.06123e-005
-2.06049e-005
-2.0597e-005
-2.05887e-005
-2.05803e-005
-2.05722e-005
-2.05643e-005
-2.05567e-005
-2.05489e-005
-2.054e-005
-2.05318e-005
-2.20782e-005
-2.20736e-005
-2.20668e-005
-2.20596e-005
-2.20519e-005
-2.20435e-005
-2.20347e-005
-2.20259e-005
-2.20173e-005
-2.20089e-005
-2.20007e-005
-2.19923e-005
-2.19829e-005
-2.19742e-005
-2.3564e-005
-2.35592e-005
-2.3552e-005
-2.35443e-005
-2.35361e-005
-2.35273e-005
-2.35181e-005
-2.35087e-005
-2.34995e-005
-2.34905e-005
-2.34817e-005
-2.34727e-005
-2.34628e-005
-2.34538e-005
-2.50876e-005
-2.50825e-005
-2.50748e-005
-2.50667e-005
-2.50581e-005
-2.50488e-005
-2.50391e-005
-2.50292e-005
-2.50194e-005
-2.50098e-005
-2.50003e-005
-2.49907e-005
-2.49804e-005
-2.49712e-005
-2.66492e-005
-2.66438e-005
-2.66356e-005
-2.66271e-005
-2.6618e-005
-2.66082e-005
-2.6598e-005
-2.65876e-005
-2.65772e-005
-2.6567e-005
-2.65569e-005
-2.65468e-005
-2.65361e-005
-2.65269e-005
-2.82489e-005
-2.82432e-005
-2.82345e-005
-2.82254e-005
-2.82159e-005
-2.82057e-005
-2.8195e-005
-2.81841e-005
-2.81732e-005
-2.81623e-005
-2.81516e-005
-2.81409e-005
-2.81299e-005
-2.81208e-005
-2.98864e-005
-2.98805e-005
-2.98712e-005
-2.98616e-005
-2.98516e-005
-2.9841e-005
-2.98299e-005
-2.98184e-005
-2.98069e-005
-2.97954e-005
-2.9784e-005
-2.97728e-005
-2.97616e-005
-2.97526e-005
-3.15612e-005
-3.15549e-005
-3.1545e-005
-3.1535e-005
-3.15246e-005
-3.15135e-005
-3.15019e-005
-3.149e-005
-3.14779e-005
-3.14658e-005
-3.14537e-005
-3.14419e-005
-3.14305e-005
-3.14215e-005
-3.32721e-005
-3.32655e-005
-3.32551e-005
-3.32446e-005
-3.32337e-005
-3.32222e-005
-3.32102e-005
-3.31978e-005
-3.31851e-005
-3.31724e-005
-3.31598e-005
-3.31474e-005
-3.31357e-005
-3.31267e-005
-3.50181e-005
-3.50111e-005
-3.50001e-005
-3.49891e-005
-3.49778e-005
-3.49659e-005
-3.49535e-005
-3.49406e-005
-3.49274e-005
-3.49141e-005
-3.49009e-005
-3.4888e-005
-3.4876e-005
-3.4867e-005
-3.67974e-005
-3.679e-005
-3.67785e-005
-3.6767e-005
-3.67552e-005
-3.67429e-005
-3.673e-005
-3.67167e-005
-3.67031e-005
-3.66893e-005
-3.66756e-005
-3.66622e-005
-3.66499e-005
-3.66407e-005
-3.86081e-005
-3.86004e-005
-3.85882e-005
-3.85761e-005
-3.85639e-005
-3.85512e-005
-3.85379e-005
-3.85242e-005
-3.85102e-005
-3.84959e-005
-3.84818e-005
-3.8468e-005
-3.84552e-005
-3.84458e-005
-4.0448e-005
-4.04398e-005
-4.0427e-005
-4.04144e-005
-4.04017e-005
-4.03886e-005
-4.03749e-005
-4.03608e-005
-4.03464e-005
-4.03318e-005
-4.03173e-005
-4.03031e-005
-4.02899e-005
-4.02801e-005
-4.23145e-005
-4.23059e-005
-4.22924e-005
-4.22793e-005
-4.22661e-005
-4.22525e-005
-4.22385e-005
-4.22241e-005
-4.22094e-005
-4.21945e-005
-4.21796e-005
-4.21651e-005
-4.21514e-005
-4.21412e-005
-4.42049e-005
-4.41959e-005
-4.41817e-005
-4.41679e-005
-4.41543e-005
-4.41403e-005
-4.41259e-005
-4.41112e-005
-4.40962e-005
-4.40811e-005
-4.4066e-005
-4.40511e-005
-4.4037e-005
-4.40262e-005
-4.61162e-005
-4.61066e-005
-4.60917e-005
-4.60774e-005
-4.60633e-005
-4.60489e-005
-4.60341e-005
-4.60192e-005
-4.6004e-005
-4.59887e-005
-4.59734e-005
-4.59582e-005
-4.59435e-005
-4.59319e-005
-4.80452e-005
-4.8035e-005
-4.80194e-005
-4.80045e-005
-4.79899e-005
-4.79751e-005
-4.796e-005
-4.79448e-005
-4.79294e-005
-4.79139e-005
-4.78985e-005
-4.78829e-005
-4.78675e-005
-4.78549e-005
-4.99883e-005
-4.99776e-005
-4.99613e-005
-4.99457e-005
-4.99306e-005
-4.99153e-005
-4.98999e-005
-4.98844e-005
-4.98688e-005
-4.98532e-005
-4.98375e-005
-4.98216e-005
-4.98053e-005
-4.97916e-005
-5.19418e-005
-5.19304e-005
-5.19133e-005
-5.1897e-005
-5.18813e-005
-5.18656e-005
-5.18498e-005
-5.1834e-005
-5.18181e-005
-5.18022e-005
-5.17863e-005
-5.177e-005
-5.17528e-005
-5.17379e-005
-5.39014e-005
-5.38894e-005
-5.38713e-005
-5.38542e-005
-5.38379e-005
-5.38216e-005
-5.38054e-005
-5.37891e-005
-5.37729e-005
-5.37568e-005
-5.37405e-005
-5.37238e-005
-5.37057e-005
-5.36897e-005
-5.5863e-005
-5.58502e-005
-5.58311e-005
-5.58131e-005
-5.57961e-005
-5.57791e-005
-5.57623e-005
-5.57456e-005
-5.5729e-005
-5.57125e-005
-5.56959e-005
-5.56787e-005
-5.56598e-005
-5.56429e-005
-5.78227e-005
-5.7809e-005
-5.77887e-005
-5.77697e-005
-5.77518e-005
-5.77341e-005
-5.77166e-005
-5.76994e-005
-5.76823e-005
-5.76654e-005
-5.76484e-005
-5.76307e-005
-5.7611e-005
-5.75935e-005
-5.97768e-005
-5.97622e-005
-5.97405e-005
-5.97203e-005
-5.97014e-005
-5.96829e-005
-5.96647e-005
-5.96468e-005
-5.96292e-005
-5.96117e-005
-5.95942e-005
-5.95759e-005
-5.95555e-005
-5.95375e-005
-6.17218e-005
-6.17063e-005
-6.16831e-005
-6.16617e-005
-6.16417e-005
-6.16222e-005
-6.16031e-005
-6.15845e-005
-6.15661e-005
-6.1548e-005
-6.15299e-005
-6.15108e-005
-6.14896e-005
-6.14709e-005
-6.36543e-005
-6.36377e-005
-6.36129e-005
-6.35901e-005
-6.3569e-005
-6.35484e-005
-6.35284e-005
-6.35088e-005
-6.34896e-005
-6.34707e-005
-6.34517e-005
-6.34317e-005
-6.34094e-005
-6.33901e-005
-6.55708e-005
-6.5553e-005
-6.55265e-005
-6.55022e-005
-6.54797e-005
-6.54579e-005
-6.54367e-005
-6.54161e-005
-6.53959e-005
-6.5376e-005
-6.53559e-005
-6.53348e-005
-6.53113e-005
-6.52912e-005
-6.7468e-005
-6.74489e-005
-6.74204e-005
-6.73944e-005
-6.73705e-005
-6.73474e-005
-6.73249e-005
-6.73031e-005
-6.72817e-005
-6.72606e-005
-6.72394e-005
-6.7217e-005
-6.71922e-005
-6.7171e-005
-6.93433e-005
-6.93227e-005
-6.92922e-005
-6.92643e-005
-6.92387e-005
-6.92141e-005
-6.91902e-005
-6.91671e-005
-6.91444e-005
-6.91219e-005
-6.90993e-005
-6.90755e-005
-6.90491e-005
-6.90269e-005
-7.11943e-005
-7.11722e-005
-7.11394e-005
-7.11096e-005
-7.10822e-005
-7.10559e-005
-7.10304e-005
-7.10057e-005
-7.09815e-005
-7.09575e-005
-7.09334e-005
-7.0908e-005
-7.08799e-005
-7.08562e-005
-7.3019e-005
-7.29952e-005
-7.296e-005
-7.2928e-005
-7.28987e-005
-7.28705e-005
-7.28432e-005
-7.28167e-005
-7.27908e-005
-7.27652e-005
-7.27393e-005
-7.27122e-005
-7.26821e-005
-7.26568e-005
-7.48157e-005
-7.479e-005
-7.47522e-005
-7.47178e-005
-7.46863e-005
-7.4656e-005
-7.46266e-005
-7.45982e-005
-7.45703e-005
-7.45427e-005
-7.4515e-005
-7.4486e-005
-7.44538e-005
-7.44267e-005
-7.65837e-005
-7.65559e-005
-7.65151e-005
-7.6478e-005
-7.6444e-005
-7.64113e-005
-7.63796e-005
-7.63488e-005
-7.63187e-005
-7.62889e-005
-7.62591e-005
-7.6228e-005
-7.61935e-005
-7.61646e-005
-7.83229e-005
-7.82928e-005
-7.82488e-005
-7.82088e-005
-7.81719e-005
-7.81364e-005
-7.81019e-005
-7.80684e-005
-7.80357e-005
-7.80033e-005
-7.79709e-005
-7.79374e-005
-7.79004e-005
-7.78694e-005
-8.00341e-005
-8.00014e-005
-7.99539e-005
-7.99104e-005
-7.98704e-005
-7.98317e-005
-7.9794e-005
-7.97574e-005
-7.97214e-005
-7.9686e-005
-7.96506e-005
-7.96141e-005
-7.95742e-005
-7.9541e-005
-8.17185e-005
-8.16829e-005
-8.16314e-005
-8.15841e-005
-8.15404e-005
-8.1498e-005
-8.14567e-005
-8.14163e-005
-8.13767e-005
-8.13376e-005
-8.12986e-005
-8.12587e-005
-8.12156e-005
-8.11802e-005
-8.33785e-005
-8.33396e-005
-8.32835e-005
-8.32319e-005
-8.3184e-005
-8.31374e-005
-8.30917e-005
-8.30469e-005
-8.3003e-005
-8.29597e-005
-8.29165e-005
-8.28726e-005
-8.28259e-005
-8.27884e-005
-8.50178e-005
-8.49752e-005
-8.4914e-005
-8.48575e-005
-8.48047e-005
-8.47531e-005
-8.47023e-005
-8.46525e-005
-8.46035e-005
-8.45551e-005
-8.45071e-005
-8.44584e-005
-8.44079e-005
-8.43681e-005
-8.66414e-005
-8.65945e-005
-8.65275e-005
-8.64654e-005
-8.64071e-005
-8.63497e-005
-8.6293e-005
-8.62373e-005
-8.61823e-005
-8.61279e-005
-8.6074e-005
-8.60198e-005
-8.59647e-005
-8.59225e-005
-8.82548e-005
-8.82031e-005
-8.81295e-005
-8.80609e-005
-8.79962e-005
-8.7932e-005
-8.78685e-005
-8.78057e-005
-8.77436e-005
-8.76822e-005
-8.76214e-005
-8.75606e-005
-8.75003e-005
-8.74556e-005
-8.98646e-005
-8.98072e-005
-8.9726e-005
-8.965e-005
-8.95778e-005
-8.95059e-005
-8.94343e-005
-8.93633e-005
-8.92929e-005
-8.92231e-005
-8.9154e-005
-8.90857e-005
-8.90196e-005
-8.89724e-005
-9.14788e-005
-9.14147e-005
-9.13246e-005
-9.124e-005
-9.11593e-005
-9.10783e-005
-9.09974e-005
-9.09167e-005
-9.08365e-005
-9.07568e-005
-9.0678e-005
-9.06007e-005
-9.0528e-005
-9.04782e-005
-9.3107e-005
-9.30351e-005
-9.29346e-005
-9.284e-005
-9.27493e-005
-9.26577e-005
-9.25657e-005
-9.24737e-005
-9.23819e-005
-9.22904e-005
-9.22e-005
-9.21119e-005
-9.20316e-005
-9.1979e-005
-9.47596e-005
-9.46783e-005
-9.45658e-005
-9.44595e-005
-9.4357e-005
-9.4253e-005
-9.4148e-005
-9.40427e-005
-9.3937e-005
-9.38315e-005
-9.37272e-005
-9.36264e-005
-9.35371e-005
-9.34817e-005
-9.64475e-005
-9.63549e-005
-9.62282e-005
-9.61083e-005
-9.59921e-005
-9.58736e-005
-9.57535e-005
-9.56324e-005
-9.55106e-005
-9.53884e-005
-9.52676e-005
-9.51515e-005
-9.5052e-005
-9.49938e-005
-9.81828e-005
-9.80767e-005
-9.79331e-005
-9.77971e-005
-9.7665e-005
-9.75295e-005
-9.73918e-005
-9.72524e-005
-9.71116e-005
-9.69699e-005
-9.68296e-005
-9.66956e-005
-9.65843e-005
-9.65234e-005
-9.99784e-005
-9.9856e-005
-9.96923e-005
-9.95374e-005
-9.93867e-005
-9.92313e-005
-9.9073e-005
-9.89123e-005
-9.87493e-005
-9.85847e-005
-9.84215e-005
-9.82665e-005
-9.81418e-005
-9.8079e-005
-0.000101847
-0.000101705
-0.000101518
-0.000101341
-0.000101168
-0.00010099
-0.000100807
-0.000100622
-0.000100433
-0.000100242
-0.000100052
-9.98724e-005
-9.97328e-005
-9.9669e-005
-0.000103803
-0.000103637
-0.000103421
-0.000103218
-0.00010302
-0.000102815
-0.000102605
-0.00010239
-0.000102172
-0.00010195
-0.000101729
-0.000101521
-0.000101365
-0.000101302
-0.000105858
-0.000105664
-0.000105415
-0.000105181
-0.000104953
-0.000104716
-0.000104474
-0.000104227
-0.000103974
-0.000103717
-0.00010346
-0.000103221
-0.000103047
-0.000102986
-0.000108025
-0.000107797
-0.000107508
-0.000107239
-0.000106977
-0.000106704
-0.000106425
-0.00010614
-0.000105849
-0.00010555
-0.000105253
-0.000104978
-0.000104784
-0.000104728
-0.000110315
-0.000110047
-0.000109711
-0.0001094
-0.000109099
-0.000108785
-0.000108464
-0.000108137
-0.000107801
-0.000107457
-0.000107114
-0.000106797
-0.000106582
-0.000106534
-0.000112737
-0.000112422
-0.000112031
-0.000111673
-0.000111326
-0.000110965
-0.000110597
-0.000110221
-0.000109835
-0.00010944
-0.000109045
-0.000108683
-0.000108445
-0.000108408
-0.000115298
-0.000114926
-0.000114472
-0.000114059
-0.000113661
-0.000113247
-0.000112825
-0.000112395
-0.000111954
-0.000111501
-0.000111049
-0.000110635
-0.000110373
-0.000110353
-0.000117999
-0.000117563
-0.000117036
-0.000116559
-0.000116104
-0.000115629
-0.000115147
-0.000114657
-0.000114154
-0.000113637
-0.000113121
-0.000112652
-0.000112364
-0.000112366
-0.000120841
-0.000120329
-0.000119718
-0.000119171
-0.00011865
-0.000118108
-0.000117559
-0.000117003
-0.000116432
-0.000115845
-0.000115258
-0.000114727
-0.000114413
-0.000114443
-0.000123814
-0.000123217
-0.000122511
-0.000121884
-0.000121291
-0.000120675
-0.000120052
-0.000119422
-0.000118777
-0.000118113
-0.00011745
-0.000116851
-0.000116511
-0.000116574
-0.000126906
-0.000126212
-0.0001254
-0.000124685
-0.000124012
-0.000123313
-0.000122611
-0.000121901
-0.000121175
-0.000120429
-0.000119682
-0.000119011
-0.000118644
-0.000118748
-0.000130097
-0.000129295
-0.000128365
-0.000127552
-0.000126792
-0.000126005
-0.000125215
-0.00012442
-0.000123608
-0.000122772
-0.000121936
-0.000121188
-0.000120793
-0.000120948
-0.000133361
-0.00013244
-0.00013138
-0.000130462
-0.000129607
-0.000128723
-0.000127841
-0.000126955
-0.000126051
-0.00012512
-0.000124189
-0.00012336
-0.000122939
-0.000123151
-0.000136666
-0.000135615
-0.000134415
-0.000133383
-0.000132427
-0.000131442
-0.000130461
-0.000129478
-0.000128477
-0.000127447
-0.000126417
-0.000125502
-0.000125057
-0.000125335
-0.000139975
-0.000138785
-0.000137435
-0.000136282
-0.00013522
-0.000134127
-0.000133043
-0.00013196
-0.000130858
-0.000129725
-0.000128591
-0.000127589
-0.000127121
-0.000127471
-0.000143248
-0.000141911
-0.000140404
-0.000139124
-0.000137951
-0.000136747
-0.000135556
-0.00013437
-0.000133166
-0.000131926
-0.000130687
-0.000129596
-0.000129106
-0.000129538
-0.000146443
-0.000144954
-0.000143285
-0.000141875
-0.000140589
-0.000139271
-0.000137972
-0.000136682
-0.000135373
-0.000134028
-0.000132683
-0.000131503
-0.000130996
-0.000131514
-0.000149512
-0.000147869
-0.000146035
-0.000144495
-0.000143096
-0.000141665
-0.000140259
-0.000138866
-0.000137457
-0.000136008
-0.000134561
-0.000133296
-0.000132776
-0.000133386
-0.0001524
-0.000150605
-0.000148609
-0.000146942
-0.000145434
-0.000143894
-0.000142385
-0.000140896
-0.000139391
-0.000137847
-0.000136305
-0.000134964
-0.000134439
-0.000135145
-0.000155055
-0.000153113
-0.000150961
-0.000149173
-0.000147562
-0.00014592
-0.000144317
-0.00014274
-0.000141151
-0.000139521
-0.000137896
-0.000136491
-0.00013597
-0.000136776
-0.000157418
-0.00015534
-0.000153044
-0.000151144
-0.000149439
-0.000147705
-0.000146018
-0.000144365
-0.000142704
-0.000141003
-0.00013931
-0.000137854
-0.000137348
-0.000138254
-0.000159434
-0.000157236
-0.000154813
-0.000152814
-0.000151027
-0.000149214
-0.000147456
-0.00014574
-0.00014402
-0.000142263
-0.000140516
-0.000139023
-0.00013854
-0.000139541
-0.000161042
-0.000158745
-0.000156217
-0.000154139
-0.000152287
-0.000150411
-0.000148597
-0.000146831
-0.000145067
-0.000143268
-0.000141483
-0.000139967
-0.000139513
-0.000140601
-0.000162189
-0.000159817
-0.00015721
-0.000155073
-0.000153175
-0.000151255
-0.000149403
-0.000147606
-0.000145815
-0.000143992
-0.000142186
-0.000140662
-0.000140243
-0.000141405
-0.00016283
-0.000160416
-0.000157763
-0.000155592
-0.000153667
-0.000151722
-0.000149851
-0.00014804
-0.00014624
-0.000144412
-0.000142606
-0.000141091
-0.000140713
-0.000141934
-0.000162933
-0.000160512
-0.000157847
-0.000155669
-0.000153741
-0.000151794
-0.000149925
-0.000148119
-0.00014633
-0.000144517
-0.000142731
-0.000141244
-0.000140912
-0.000142175
-0.000162485
-0.000160095
-0.000157462
-0.000155308
-0.000153401
-0.000151476
-0.00014963
-0.000147849
-0.00014609
-0.000144313
-0.000142567
-0.000141126
-0.000140842
-0.000142123
-0.000161486
-0.00015917
-0.000156612
-0.000154518
-0.000152662
-0.000150786
-0.000148986
-0.000147252
-0.000145542
-0.00014382
-0.000142133
-0.000140752
-0.000140513
-0.000141784
-0.000159962
-0.000157762
-0.000155324
-0.000153322
-0.000151546
-0.000149748
-0.000148021
-0.000146358
-0.000144717
-0.000143067
-0.000141456
-0.000140145
-0.00013994
-0.000141167
-0.000157973
-0.000155933
-0.000153661
-0.000151787
-0.000150116
-0.000148422
-0.00014679
-0.000145216
-0.000143663
-0.000142102
-0.000140578
-0.000139341
-0.000139156
-0.000140299
-0.000155604
-0.000153764
-0.000151701
-0.000149985
-0.000148445
-0.000146877
-0.00014536
-0.00014389
-0.000142437
-0.000140977
-0.000139552
-0.000138398
-0.00013822
-0.000139245
-0.000152978
-0.000151375
-0.000149562
-0.000148031
-0.00014664
-0.000145215
-0.000143824
-0.000142467
-0.00014112
-0.000139766
-0.000138449
-0.000137383
-0.000137203
-0.000138078
-0.00015026
-0.000148921
-0.00014738
-0.000146049
-0.000144816
-0.00014354
-0.000142278
-0.000141034
-0.000139792
-0.000138544
-0.000137335
-0.000136357
-0.000136157
-0.000136849
-0.000147676
-0.000146615
-0.000145359
-0.000144228
-0.000143144
-0.000142004
-0.000140854
-0.000139703
-0.000138546
-0.000137388
-0.000136277
-0.000135381
-0.000135152
-0.000135646
-0.000145524
-0.000144729
-0.000143725
-0.000142756
-0.000141786
-0.00014075
-0.000139678
-0.000138583
-0.000137474
-0.000136369
-0.000135323
-0.000134485
-0.000134214
-0.000134519
-0.000144126
-0.000143554
-0.000142729
-0.00014182
-0.000140839
-0.000139781
-0.000138674
-0.000137544
-0.000136416
-0.000135325
-0.000134335
-0.000133583
-0.000133363
-0.000133601
-4.97417e-007
-4.98246e-007
-4.9842e-007
-4.98563e-007
-4.98608e-007
-4.98551e-007
-4.98431e-007
-4.98275e-007
-4.98104e-007
-4.97931e-007
-4.9776e-007
-4.97584e-007
-4.97386e-007
-4.97048e-007
-1.51583e-006
-1.51633e-006
-1.51614e-006
-1.51591e-006
-1.51557e-006
-1.51511e-006
-1.51459e-006
-1.51403e-006
-1.51348e-006
-1.51297e-006
-1.51252e-006
-1.51214e-006
-1.51186e-006
-1.51158e-006
-2.56647e-006
-2.56598e-006
-2.56524e-006
-2.56444e-006
-2.56353e-006
-2.5625e-006
-2.5614e-006
-2.56026e-006
-2.55912e-006
-2.55804e-006
-2.55707e-006
-2.55623e-006
-2.55563e-006
-2.5552e-006
-3.62398e-006
-3.62321e-006
-3.62205e-006
-3.62074e-006
-3.61927e-006
-3.61763e-006
-3.61587e-006
-3.61408e-006
-3.61232e-006
-3.61067e-006
-3.60917e-006
-3.60789e-006
-3.60694e-006
-3.60631e-006
-4.6912e-006
-4.69019e-006
-4.68866e-006
-4.68692e-006
-4.68495e-006
-4.68276e-006
-4.68043e-006
-4.67805e-006
-4.6757e-006
-4.67349e-006
-4.67149e-006
-4.66979e-006
-4.66852e-006
-4.6677e-006
-5.77118e-006
-5.7699e-006
-5.76797e-006
-5.76579e-006
-5.76333e-006
-5.76062e-006
-5.75774e-006
-5.7548e-006
-5.75191e-006
-5.74918e-006
-5.7467e-006
-5.74456e-006
-5.74289e-006
-5.74178e-006
-6.86755e-006
-6.86606e-006
-6.86381e-006
-6.86124e-006
-6.85833e-006
-6.85512e-006
-6.8517e-006
-6.84821e-006
-6.84478e-006
-6.84151e-006
-6.83852e-006
-6.83587e-006
-6.8337e-006
-6.83219e-006
-7.98252e-006
-7.98083e-006
-7.97825e-006
-7.9753e-006
-7.97195e-006
-7.96822e-006
-7.96426e-006
-7.96021e-006
-7.9562e-006
-7.95239e-006
-7.94885e-006
-7.94566e-006
-7.94296e-006
-7.94105e-006
-9.11833e-006
-9.1164e-006
-9.11347e-006
-9.11012e-006
-9.10633e-006
-9.10213e-006
-9.09765e-006
-9.09307e-006
-9.08855e-006
-9.08422e-006
-9.08019e-006
-9.07651e-006
-9.07328e-006
-9.07094e-006
-1.02774e-005
-1.02753e-005
-1.0272e-005
-1.02683e-005
-1.0264e-005
-1.02593e-005
-1.02544e-005
-1.02493e-005
-1.02442e-005
-1.02394e-005
-1.02348e-005
-1.02306e-005
-1.02267e-005
-1.02238e-005
-1.14621e-005
-1.14598e-005
-1.14561e-005
-1.1452e-005
-1.14474e-005
-1.14423e-005
-1.14368e-005
-1.14311e-005
-1.14256e-005
-1.14201e-005
-1.1415e-005
-1.14101e-005
-1.14055e-005
-1.1402e-005
-1.26743e-005
-1.26717e-005
-1.26678e-005
-1.26634e-005
-1.26583e-005
-1.26527e-005
-1.26468e-005
-1.26407e-005
-1.26346e-005
-1.26287e-005
-1.2623e-005
-1.26175e-005
-1.26122e-005
-1.26082e-005
-1.39158e-005
-1.3913e-005
-1.39088e-005
-1.39039e-005
-1.38985e-005
-1.38925e-005
-1.38861e-005
-1.38795e-005
-1.38729e-005
-1.38665e-005
-1.38604e-005
-1.38544e-005
-1.38485e-005
-1.38439e-005
-1.51883e-005
-1.51853e-005
-1.51807e-005
-1.51755e-005
-1.51697e-005
-1.51632e-005
-1.51563e-005
-1.51492e-005
-1.51422e-005
-1.51353e-005
-1.51286e-005
-1.5122e-005
-1.51154e-005
-1.51102e-005
-1.64935e-005
-1.64902e-005
-1.64853e-005
-1.64798e-005
-1.64735e-005
-1.64666e-005
-1.64593e-005
-1.64517e-005
-1.64441e-005
-1.64366e-005
-1.64293e-005
-1.64221e-005
-1.64148e-005
-1.64088e-005
-1.78327e-005
-1.78293e-005
-1.7824e-005
-1.78181e-005
-1.78115e-005
-1.78042e-005
-1.77964e-005
-1.77883e-005
-1.77802e-005
-1.77722e-005
-1.77644e-005
-1.77566e-005
-1.77486e-005
-1.77421e-005
-1.92071e-005
-1.92034e-005
-1.91978e-005
-1.91916e-005
-1.91847e-005
-1.9177e-005
-1.91687e-005
-1.91602e-005
-1.91517e-005
-1.91432e-005
-1.91349e-005
-1.91266e-005
-1.91181e-005
-1.9111e-005
-2.06175e-005
-2.06136e-005
-2.06077e-005
-2.06011e-005
-2.05938e-005
-2.05857e-005
-2.05771e-005
-2.05682e-005
-2.05592e-005
-2.05503e-005
-2.05415e-005
-2.05327e-005
-2.05237e-005
-2.05162e-005
-2.20647e-005
-2.20605e-005
-2.20543e-005
-2.20473e-005
-2.20396e-005
-2.20312e-005
-2.20221e-005
-2.20128e-005
-2.20033e-005
-2.19939e-005
-2.19847e-005
-2.19754e-005
-2.19658e-005
-2.19579e-005
-2.35493e-005
-2.35449e-005
-2.35382e-005
-2.35309e-005
-2.35228e-005
-2.35139e-005
-2.35044e-005
-2.34946e-005
-2.34847e-005
-2.34748e-005
-2.3465e-005
-2.34552e-005
-2.34453e-005
-2.3437e-005
-2.50716e-005
-2.50669e-005
-2.50598e-005
-2.5052e-005
-2.50436e-005
-2.50343e-005
-2.50244e-005
-2.50142e-005
-2.50038e-005
-2.49934e-005
-2.49832e-005
-2.4973e-005
-2.49627e-005
-2.49542e-005
-2.66318e-005
-2.66269e-005
-2.66193e-005
-2.66111e-005
-2.66022e-005
-2.65925e-005
-2.65823e-005
-2.65716e-005
-2.65608e-005
-2.65501e-005
-2.65394e-005
-2.65289e-005
-2.65184e-005
-2.65098e-005
-2.823e-005
-2.82247e-005
-2.82167e-005
-2.82081e-005
-2.81988e-005
-2.81887e-005
-2.81781e-005
-2.81671e-005
-2.81559e-005
-2.81448e-005
-2.81337e-005
-2.81229e-005
-2.81123e-005
-2.81036e-005
-2.98658e-005
-2.98603e-005
-2.98518e-005
-2.98427e-005
-2.98331e-005
-2.98227e-005
-2.98117e-005
-2.98003e-005
-2.97888e-005
-2.97772e-005
-2.97659e-005
-2.97547e-005
-2.9744e-005
-2.97353e-005
-3.15387e-005
-3.15329e-005
-3.15239e-005
-3.15144e-005
-3.15044e-005
-3.14936e-005
-3.14823e-005
-3.14706e-005
-3.14587e-005
-3.14468e-005
-3.1435e-005
-3.14236e-005
-3.14127e-005
-3.1404e-005
-3.32477e-005
-3.32416e-005
-3.32321e-005
-3.32222e-005
-3.32118e-005
-3.32007e-005
-3.3189e-005
-3.3177e-005
-3.31647e-005
-3.31524e-005
-3.31403e-005
-3.31286e-005
-3.31175e-005
-3.31087e-005
-3.49914e-005
-3.4985e-005
-3.4975e-005
-3.49647e-005
-3.49539e-005
-3.49425e-005
-3.49305e-005
-3.49181e-005
-3.49055e-005
-3.48929e-005
-3.48805e-005
-3.48684e-005
-3.48571e-005
-3.48481e-005
-3.67683e-005
-3.67615e-005
-3.6751e-005
-3.67402e-005
-3.67291e-005
-3.67173e-005
-3.67051e-005
-3.66924e-005
-3.66795e-005
-3.66665e-005
-3.66538e-005
-3.66414e-005
-3.66298e-005
-3.66206e-005
-3.85763e-005
-3.85692e-005
-3.85581e-005
-3.85469e-005
-3.85354e-005
-3.85233e-005
-3.85107e-005
-3.84978e-005
-3.84846e-005
-3.84713e-005
-3.84583e-005
-3.84456e-005
-3.84335e-005
-3.84241e-005
-4.04133e-005
-4.04058e-005
-4.03942e-005
-4.03825e-005
-4.03706e-005
-4.03582e-005
-4.03453e-005
-4.0332e-005
-4.03186e-005
-4.0305e-005
-4.02917e-005
-4.02786e-005
-4.02662e-005
-4.02564e-005
-4.22767e-005
-4.22689e-005
-4.22567e-005
-4.22445e-005
-4.22322e-005
-4.22194e-005
-4.22062e-005
-4.21927e-005
-4.2179e-005
-4.21652e-005
-4.21516e-005
-4.21382e-005
-4.21253e-005
-4.2115e-005
-4.41638e-005
-4.41556e-005
-4.41428e-005
-4.41302e-005
-4.41174e-005
-4.41043e-005
-4.40908e-005
-4.4077e-005
-4.40631e-005
-4.4049e-005
-4.40351e-005
-4.40215e-005
-4.4008e-005
-4.39972e-005
-4.60717e-005
-4.6063e-005
-4.60496e-005
-4.60365e-005
-4.60234e-005
-4.60099e-005
-4.59961e-005
-4.5982e-005
-4.59678e-005
-4.59536e-005
-4.59394e-005
-4.59253e-005
-4.59112e-005
-4.58997e-005
-4.7997e-005
-4.79879e-005
-4.79739e-005
-4.79603e-005
-4.79467e-005
-4.79329e-005
-4.79188e-005
-4.79045e-005
-4.789e-005
-4.78755e-005
-4.78609e-005
-4.78464e-005
-4.78315e-005
-4.78192e-005
-4.99364e-005
-4.99268e-005
-4.99122e-005
-4.9898e-005
-4.9884e-005
-4.98698e-005
-4.98553e-005
-4.98407e-005
-4.98259e-005
-4.98111e-005
-4.97962e-005
-4.9781e-005
-4.97652e-005
-4.97519e-005
-5.1886e-005
-5.18758e-005
-5.18605e-005
-5.18457e-005
-5.18312e-005
-5.18166e-005
-5.18017e-005
-5.17867e-005
-5.17716e-005
-5.17564e-005
-5.1741e-005
-5.17253e-005
-5.17084e-005
-5.1694e-005
-5.38416e-005
-5.38309e-005
-5.38148e-005
-5.37993e-005
-5.37843e-005
-5.37692e-005
-5.37538e-005
-5.37384e-005
-5.37229e-005
-5.37073e-005
-5.36915e-005
-5.3675e-005
-5.36572e-005
-5.36417e-005
-5.57993e-005
-5.57879e-005
-5.57709e-005
-5.57547e-005
-5.5739e-005
-5.57233e-005
-5.57075e-005
-5.56917e-005
-5.56757e-005
-5.56597e-005
-5.56434e-005
-5.56263e-005
-5.56075e-005
-5.5591e-005
-5.77552e-005
-5.77431e-005
-5.7725e-005
-5.77078e-005
-5.76914e-005
-5.76751e-005
-5.76587e-005
-5.76424e-005
-5.7626e-005
-5.76096e-005
-5.75928e-005
-5.75751e-005
-5.75553e-005
-5.75379e-005
-5.97055e-005
-5.96926e-005
-5.96733e-005
-5.96552e-005
-5.9638e-005
-5.96209e-005
-5.96039e-005
-5.9587e-005
-5.95701e-005
-5.95532e-005
-5.95358e-005
-5.95174e-005
-5.94966e-005
-5.94784e-005
-6.16467e-005
-6.16329e-005
-6.16124e-005
-6.15933e-005
-6.15751e-005
-6.15572e-005
-6.15395e-005
-6.1522e-005
-6.15045e-005
-6.14869e-005
-6.14689e-005
-6.14496e-005
-6.14277e-005
-6.14084e-005
-6.35754e-005
-6.35607e-005
-6.35388e-005
-6.35184e-005
-6.34993e-005
-6.34804e-005
-6.34619e-005
-6.34435e-005
-6.34253e-005
-6.3407e-005
-6.33882e-005
-6.33679e-005
-6.33446e-005
-6.33241e-005
-6.5488e-005
-6.54723e-005
-6.54489e-005
-6.54271e-005
-6.54068e-005
-6.53869e-005
-6.53673e-005
-6.53481e-005
-6.5329e-005
-6.53097e-005
-6.52899e-005
-6.52685e-005
-6.52437e-005
-6.52218e-005
-6.73812e-005
-6.73644e-005
-6.73393e-005
-6.73161e-005
-6.72944e-005
-6.72733e-005
-6.72525e-005
-6.72322e-005
-6.7212e-005
-6.71917e-005
-6.71708e-005
-6.7148e-005
-6.71215e-005
-6.70982e-005
-6.92524e-005
-6.92343e-005
-6.92073e-005
-6.91824e-005
-6.91593e-005
-6.91367e-005
-6.91147e-005
-6.90931e-005
-6.90717e-005
-6.90501e-005
-6.90278e-005
-6.90036e-005
-6.89752e-005
-6.89502e-005
-7.10989e-005
-7.10795e-005
-7.10505e-005
-7.10238e-005
-7.0999e-005
-7.09749e-005
-7.09514e-005
-7.09283e-005
-7.09055e-005
-7.08824e-005
-7.08586e-005
-7.08326e-005
-7.08021e-005
-7.07752e-005
-7.29187e-005
-7.28977e-005
-7.28666e-005
-7.28379e-005
-7.28113e-005
-7.27855e-005
-7.27602e-005
-7.27355e-005
-7.27111e-005
-7.26863e-005
-7.26607e-005
-7.26328e-005
-7.26e-005
-7.2571e-005
-7.471e-005
-7.46873e-005
-7.46538e-005
-7.46229e-005
-7.45942e-005
-7.45664e-005
-7.45393e-005
-7.45127e-005
-7.44863e-005
-7.44597e-005
-7.44322e-005
-7.44022e-005
-7.4367e-005
-7.43358e-005
-7.64717e-005
-7.64471e-005
-7.64109e-005
-7.63776e-005
-7.63466e-005
-7.63166e-005
-7.62872e-005
-7.62584e-005
-7.62299e-005
-7.62011e-005
-7.61714e-005
-7.61392e-005
-7.61015e-005
-7.6068e-005
-7.82035e-005
-7.81768e-005
-7.81377e-005
-7.81016e-005
-7.8068e-005
-7.80354e-005
-7.80035e-005
-7.79721e-005
-7.79411e-005
-7.79098e-005
-7.78777e-005
-7.7843e-005
-7.78025e-005
-7.77665e-005
-7.99058e-005
-7.98766e-005
-7.98343e-005
-7.97952e-005
-7.97586e-005
-7.9723e-005
-7.96881e-005
-7.96539e-005
-7.96199e-005
-7.95858e-005
-7.95509e-005
-7.95133e-005
-7.94697e-005
-7.94312e-005
-8.15795e-005
-8.15476e-005
-8.15016e-005
-8.1459e-005
-8.1419e-005
-8.138e-005
-8.13417e-005
-8.13041e-005
-8.12668e-005
-8.12295e-005
-8.11914e-005
-8.11507e-005
-8.1104e-005
-8.10628e-005
-8.32264e-005
-8.31915e-005
-8.31413e-005
-8.30947e-005
-8.30508e-005