/*--------------------------------*- C++ -*----------------------------------*\
| =========                 |                                                 |
| \\      /  F ield         | OpenFOAM: The Open Source CFD Toolbox           |
|  \\    /   O peration     | Version:  5.x                                   |
|   \\  /    A nd           | Web:      www.OpenFOAM.org                      |
|    \\/     M anipulation  |                                                 |
\*---------------------------------------------------------------------------*/
/*   Windows 32 and 64 bit porting by blueCAPE: http://www.bluecape.com.pt   *\
|  Based on Windows porting (2.0.x v4) by Symscape: http://www.symscape.com   |
\*---------------------------------------------------------------------------*/
FoamFile
{
    version     2.0;
    format      ascii;
    class       volScalarField;
    location    "0.25";
    object      p;
}
// * * * * * * * * * * * * * * * * * * * * * * * * * * * * * * * * * * * * * //

dimensions      [0 2 -2 0 0 0 0];

internalField   nonuniform List<scalar> 
141075
(
-1.7581e-006
-2.1718e-006
-3.61344e-006
-4.54948e-006
-5.28242e-006
-5.8894e-006
-6.39662e-006
-6.82299e-006
-7.16854e-006
-7.46224e-006
-7.64866e-006
-7.69859e-006
-7.61526e-006
-7.65077e-006
3.73912e-006
3.42024e-006
1.86644e-006
7.54152e-007
-1.94137e-007
-1.07989e-006
-1.94785e-006
-2.85163e-006
-3.79276e-006
-4.72946e-006
-5.52404e-006
-6.02712e-006
-6.25267e-006
-6.52955e-006
1.43857e-005
1.42113e-005
1.38728e-005
1.35354e-005
1.31411e-005
1.26396e-005
1.20113e-005
1.12532e-005
1.03774e-005
9.46622e-006
8.69216e-006
8.27493e-006
8.1012e-006
7.52132e-006
2.23702e-005
2.25574e-005
2.30737e-005
2.33206e-005
2.34045e-005
2.32768e-005
2.29129e-005
2.23186e-005
2.152e-005
2.06334e-005
1.98897e-005
1.95666e-005
1.9444e-005
1.86017e-005
2.53732e-005
2.57812e-005
2.68862e-005
2.74613e-005
2.76926e-005
2.76569e-005
2.73277e-005
2.67066e-005
2.58302e-005
2.48398e-005
2.39972e-005
2.36427e-005
2.34909e-005
2.24344e-005
2.48475e-005
2.53125e-005
2.65578e-005
2.73128e-005
2.77116e-005
2.77721e-005
2.74699e-005
2.68053e-005
2.58259e-005
2.47124e-005
2.3765e-005
2.3388e-005
2.32856e-005
2.22365e-005
2.16522e-005
2.2059e-005
2.31168e-005
2.38012e-005
2.4136e-005
2.41231e-005
2.37285e-005
2.29462e-005
2.18489e-005
2.06475e-005
1.9664e-005
1.93439e-005
1.94337e-005
1.86982e-005
1.70895e-005
1.73626e-005
1.80513e-005
1.85376e-005
1.87166e-005
1.85614e-005
1.80315e-005
1.71173e-005
1.59053e-005
1.46359e-005
1.36565e-005
1.34473e-005
1.38427e-005
1.36785e-005
1.32954e-005
1.34741e-005
1.39042e-005
1.4286e-005
1.44013e-005
1.41935e-005
1.36173e-005
1.26627e-005
1.14221e-005
1.01544e-005
9.22141e-006
9.13877e-006
9.856e-006
1.03234e-005
1.23732e-005
1.25879e-005
1.30937e-005
1.36462e-005
1.39529e-005
1.39322e-005
1.35311e-005
1.27413e-005
1.16701e-005
1.05973e-005
9.88127e-006
1.00331e-005
1.10467e-005
1.19511e-005
1.53985e-005
1.58031e-005
1.67069e-005
1.76391e-005
1.83225e-005
1.86765e-005
1.86509e-005
1.82375e-005
1.75421e-005
1.68442e-005
1.64868e-005
1.69475e-005
1.81601e-005
1.91599e-005
2.18174e-005
2.25383e-005
2.41366e-005
2.55853e-005
2.66809e-005
2.74307e-005
2.77931e-005
2.77689e-005
2.74572e-005
2.712e-005
2.70625e-005
2.77009e-005
2.8856e-005
2.95638e-005
2.9943e-005
3.0815e-005
3.28199e-005
3.46736e-005
3.62001e-005
3.73431e-005
3.80648e-005
3.83695e-005
3.83546e-005
3.82656e-005
3.8365e-005
3.90065e-005
3.99064e-005
4.01188e-005
3.87635e-005
3.97281e-005
4.18552e-005
4.37029e-005
4.51857e-005
4.63303e-005
4.71036e-005
4.75033e-005
4.76135e-005
4.76358e-005
4.77612e-005
4.82633e-005
4.88096e-005
4.85407e-005
4.72569e-005
4.81513e-005
5.00939e-005
5.17268e-005
5.29484e-005
5.38136e-005
5.43091e-005
5.44576e-005
5.43587e-005
5.41916e-005
5.40969e-005
5.42967e-005
5.45001e-005
5.39941e-005
5.6008e-005
5.65974e-005
5.79513e-005
5.92008e-005
6.01526e-005
6.0716e-005
6.0878e-005
6.06731e-005
6.02081e-005
5.96516e-005
5.91315e-005
5.88699e-005
5.87196e-005
5.82034e-005
6.74108e-005
6.78732e-005
6.88693e-005
6.96992e-005
7.0205e-005
7.03529e-005
7.01215e-005
6.95328e-005
6.8678e-005
6.77131e-005
6.67621e-005
6.60507e-005
6.56102e-005
6.52189e-005
8.23997e-005
8.28665e-005
8.38217e-005
8.45411e-005
8.48738e-005
8.48224e-005
8.43784e-005
8.35665e-005
8.24695e-005
8.12332e-005
7.99767e-005
7.89349e-005
7.83232e-005
7.81554e-005
0.000100753
0.000101179
0.00010208
0.000102859
0.00010335
0.000103461
0.000103177
0.00010252
0.000101556
0.000100402
9.91405e-005
9.79865e-005
9.73013e-005
9.72959e-005
0.00012179
0.000122247
0.000123113
0.00012383
0.000124318
0.000124528
0.000124431
0.000124024
0.000123334
0.000122425
0.000121329
0.000120209
0.000119485
0.000119501
0.000143793
0.000144249
0.000145007
0.000145549
0.00014587
0.000145993
0.000145885
0.00014552
0.000144898
0.000144037
0.000142911
0.000141608
0.00014057
0.000140334
0.000165653
0.000165994
0.000166505
0.000166812
0.000166906
0.000166796
0.00016646
0.000165878
0.000165042
0.000163938
0.000162493
0.000160733
0.000159147
0.000158494
0.000187679
0.000187904
0.000188196
0.00018827
0.00018811
0.000187707
0.000187041
0.000186096
0.000184852
0.000183289
0.000181339
0.000179033
0.000176931
0.000175966
0.000210485
0.0002107
0.000210986
0.000210972
0.000210667
0.000210069
0.000209163
0.000207937
0.000206371
0.000204442
0.000202092
0.000199368
0.000196942
0.000195884
0.000233974
0.000234271
0.000234717
0.000234787
0.000234519
0.000233951
0.000233084
0.000231916
0.000230415
0.000228534
0.0002262
0.000223472
0.000221143
0.000220351
0.00025725
0.000257586
0.000258097
0.000258282
0.000258193
0.000257885
0.000257369
0.000256634
0.000255621
0.000254243
0.000252395
0.000250128
0.000248307
0.000248104
0.000279548
0.000279785
0.000280063
0.000280185
0.00028018
0.000280109
0.000279994
0.000279815
0.00027949
0.000278882
0.000277825
0.000276299
0.000275163
0.000275646
0.00030109
0.000301081
0.000300818
0.000300621
0.000300461
0.000300396
0.000300462
0.000300639
0.000300832
0.000300871
0.000300531
0.000299698
0.000299142
0.000300194
0.000323302
0.000322987
0.000322087
0.000321455
0.000320989
0.000320718
0.00032069
0.000320895
0.000321241
0.000321543
0.000321534
0.000321006
0.000320624
0.000321903
0.000348177
0.000347641
0.000346281
0.00034529
0.000344523
0.000343992
0.000343771
0.00034387
0.000344189
0.000344516
0.000344535
0.000343951
0.000343307
0.000344319
0.000376928
0.000376348
0.00037486
0.00037372
0.000372816
0.000372186
0.000371927
0.000372052
0.000372438
0.000372824
0.000372828
0.00037206
0.000370862
0.000371057
0.000408857
0.000408387
0.000407064
0.000406015
0.000405212
0.000404744
0.000404717
0.000405139
0.000405847
0.00040652
0.000406688
0.000405823
0.000403949
0.000402867
0.000441379
0.000441039
0.000439936
0.000439081
0.000438529
0.000438402
0.000438817
0.000439768
0.000441062
0.000442312
0.000442949
0.000442273
0.000439895
0.000437462
0.000471567
0.00047125
0.00047019
0.000469424
0.000469055
0.000469214
0.000470019
0.000471458
0.000473316
0.000475168
0.000476371
0.000476064
0.00047344
0.000469997
0.000497996
0.000497592
0.000496369
0.000495501
0.000495098
0.000495295
0.000496215
0.000497841
0.000499951
0.000502098
0.000503579
0.000503411
0.000500465
0.000496287
0.00052106
0.000520541
0.00051911
0.000518077
0.000517545
0.000517653
0.000518529
0.000520153
0.000522283
0.000524429
0.000525822
0.000525374
0.000521707
0.00051663
0.000541612
0.00054103
0.000539535
0.000538476
0.000537966
0.000538133
0.000539101
0.000540831
0.000543045
0.000545193
0.000546432
0.000545557
0.000540921
0.000534662
0.000559678
0.000559087
0.000557713
0.000556827
0.000556569
0.000557055
0.000558398
0.000560537
0.000563159
0.000565663
0.00056712
0.000566182
0.000560862
0.000553571
0.0005749
0.000574308
0.000573128
0.000572521
0.000572647
0.000573619
0.000575551
0.000578368
0.000581727
0.000584975
0.000587095
0.00058658
0.00058111
0.000573337
0.000587702
0.000587132
0.000586149
0.000585834
0.00058635
0.000587806
0.000590306
0.000593753
0.000597771
0.00060166
0.000604333
0.000604179
0.000598678
0.000590812
0.000598654
0.000598207
0.000597472
0.000597456
0.000598318
0.000600157
0.000603051
0.000606868
0.000611196
0.000615297
0.000618043
0.000617787
0.000611958
0.000603953
0.000606572
0.000606331
0.00060593
0.000606248
0.000607449
0.000609639
0.000612876
0.000617001
0.000621572
0.000625826
0.000628592
0.00062819
0.000622046
0.000613874
0.000608986
0.000608889
0.000608831
0.000609491
0.000611039
0.000613581
0.000617177
0.000621662
0.000626588
0.000631183
0.000634253
0.000634099
0.000628158
0.000620311
0.000605528
0.00060545
0.0006057
0.000606656
0.000608473
0.000611237
0.000615012
0.000619634
0.000624666
0.000629367
0.000632587
0.000632699
0.000627276
0.00062037
0.000599363
0.000599323
0.000599972
0.000601224
0.000603238
0.000606077
0.000609795
0.00061422
0.000618927
0.000623223
0.000626049
0.000625946
0.000620783
0.00061486
0.000593933
0.00059406
0.000595242
0.000596844
0.000599071
0.00060198
0.000605603
0.00060975
0.000614001
0.000617713
0.000619924
0.000619361
0.000614284
0.000609171
0.000589695
0.000590016
0.000591639
0.000593474
0.000595786
0.000598644
0.000602058
0.000605835
0.00060958
0.000612719
0.000614411
0.000613586
0.000608952
0.000605034
0.000585401
0.000585825
0.000587639
0.000589418
0.000591471
0.000593896
0.000596695
0.000599693
0.000602549
0.000604792
0.000605742
0.000604594
0.000600614
0.000598445
0.000580777
0.000581222
0.000583051
0.000584631
0.000586257
0.000588032
0.000589951
0.000591848
0.000593428
0.000594312
0.000593993
0.000591968
0.000588232
0.000587773
0.000576263
0.000576669
0.000578336
0.000579666
0.000580894
0.000582078
0.000583181
0.000584029
0.00058435
0.000583832
0.000582116
0.000579006
0.000575333
0.000576528
0.000571622
0.000571906
0.000573109
0.000573934
0.000574535
0.000574947
0.000575111
0.000574863
0.000573975
0.000572234
0.000569447
0.000565719
0.000562747
0.000566315
0.000566718
0.00056679
0.000567255
0.000567289
0.000566931
0.000566224
0.000565113
0.000563478
0.000561178
0.000558139
0.000554372
0.000550298
0.000548498
0.000555101
0.000562549
0.000562434
0.000562179
0.000561483
0.000560247
0.000558504
0.000556209
0.000553279
0.000549639
0.000545319
0.000540506
0.000535911
0.000534997
0.000544322
0.000559572
0.000559399
0.000558679
0.000557545
0.000555789
0.000553443
0.000550476
0.000546829
0.000542464
0.000537462
0.000532112
0.000527321
0.00052728
0.000538819
0.000556456
0.000556251
0.000555212
0.000553824
0.000551776
0.0005491
0.000545796
0.00054186
0.000537312
0.000532299
0.000527184
0.000522983
0.000524357
0.000538094
0.000552256
0.000551974
0.000550645
0.000549087
0.000546886
0.000544039
0.000540566
0.000536508
0.000531943
0.000527076
0.000522335
0.000518816
0.000521524
0.000537194
0.000547556
0.000547247
0.000545757
0.000544172
0.000542025
0.000539311
0.00053603
0.000532214
0.000527923
0.000523344
0.000518916
0.00051579
0.000519309
0.000536303
0.000542578
0.000542308
0.000540788
0.000539296
0.000537337
0.000534959
0.000532173
0.000529006
0.0005255
0.000521805
0.000518328
0.000516199
0.000520937
0.000539244
0.000537039
0.00053674
0.00053517
0.000533808
0.00053206
0.000529984
0.000527664
0.000525207
0.000522716
0.000520357
0.000518511
0.000518197
0.000524848
0.000544688
0.000532014
0.000531619
0.000529936
0.000528678
0.000527182
0.000525435
0.000523575
0.00052178
0.000520202
0.000519013
0.000518552
0.000519714
0.00052781
0.000548665
0.000529227
0.000528901
0.000527325
0.000526144
0.000524801
0.000523359
0.00052196
0.000520775
0.000519928
0.000519544
0.00051992
0.000521887
0.000530758
0.00055211
0.000528779
0.000528656
0.000527518
0.000526587
0.000525405
0.000524191
0.000523119
0.000522383
0.000522112
0.000522427
0.000523634
0.000526535
0.000536396
0.000558385
0.000530385
0.000530271
0.000529417
0.000528897
0.000528209
0.000527473
0.000526893
0.000526707
0.000527088
0.000528186
0.000530325
0.000534263
0.000545144
0.000567672
0.000534963
0.00053479
0.000533937
0.000533556
0.000533229
0.000533003
0.000533045
0.000533552
0.000534663
0.000536493
0.00053935
0.000543967
0.000555491
0.00057828
0.000541924
0.000541791
0.000540909
0.000540348
0.000539858
0.000539657
0.000539899
0.000540752
0.000542327
0.000544714
0.000548229
0.000553599
0.000565997
0.00058936
0.000549282
0.00054893
0.000547659
0.000546854
0.000546225
0.000545948
0.000546211
0.00054722
0.000549127
0.000552045
0.00055629
0.000562527
0.000575886
0.000599918
0.000557457
0.000556736
0.000554771
0.000553577
0.000552842
0.000552612
0.000553047
0.000554319
0.000556542
0.000559777
0.000564295
0.000570728
0.000584295
0.000608497
0.000567274
0.000566439
0.000564164
0.000562612
0.000561559
0.000561144
0.000561484
0.000562685
0.000564792
0.000567827
0.000572068
0.000578214
0.000591645
0.000615927
0.00057763
0.000576711
0.000574373
0.000572807
0.000571752
0.000571274
0.000571483
0.000572487
0.000574357
0.000577163
0.000581233
0.000587296
0.000600767
0.000625155
0.000588239
0.000587332
0.000585142
0.000583771
0.000582982
0.000582762
0.000583182
0.000584325
0.000586254
0.000589046
0.000593053
0.000599033
0.000612443
0.000636765
0.000598531
0.00059787
0.000596212
0.000595213
0.00059468
0.000594686
0.000595254
0.000596433
0.000598275
0.000600892
0.000604722
0.000610642
0.000624218
0.000648876
0.000607049
0.000606419
0.000604944
0.000604288
0.000604133
0.000604401
0.000605086
0.000606259
0.000608039
0.000610641
0.0006146
0.000620877
0.000635129
0.000660639
0.000614458
0.000613807
0.000612233
0.000611564
0.000611482
0.000611907
0.000612812
0.000614257
0.000616355
0.000619308
0.000623649
0.000630393
0.000645385
0.00067178
0.000621634
0.000621092
0.000619603
0.000618918
0.000618776
0.000619266
0.000620383
0.000622173
0.000624693
0.000628079
0.000632827
0.000640006
0.00065566
0.000682787
0.000629241
0.000628871
0.000627762
0.000627514
0.000627789
0.000628667
0.000630198
0.000632454
0.000635487
0.000639413
0.000644699
0.000652423
0.000668707
0.000696321
0.000637795
0.000637789
0.00063749
0.000638149
0.000639311
0.000641003
0.000643277
0.000646219
0.00064989
0.000654414
0.000660275
0.000668602
0.000685568
0.000713611
0.00064592
0.000646205
0.00064647
0.000647915
0.000650003
0.000652606
0.000655721
0.000659437
0.000663859
0.000669156
0.000675821
0.000684951
0.000702683
0.000731061
0.000652874
0.000653425
0.000653974
0.0006556
0.000657853
0.000660732
0.000664191
0.000668312
0.000673233
0.00067914
0.000686486
0.000696317
0.000714741
0.000743411
0.000658751
0.000659434
0.000659951
0.000661354
0.000663277
0.000665883
0.000669125
0.000673073
0.000677863
0.000683688
0.000691064
0.00070117
0.000720152
0.000749139
0.000664719
0.000665435
0.000665886
0.000667141
0.000668736
0.000670865
0.000673548
0.000676923
0.000681207
0.000686651
0.000693797
0.000703817
0.00072269
0.00075106
0.000672969
0.000673526
0.000673844
0.000675207
0.000676867
0.000678842
0.000681212
0.000684189
0.000688067
0.000693125
0.00069984
0.000709314
0.000727221
0.000753761
0.000687026
0.000687236
0.000686828
0.000687831
0.000689438
0.000691362
0.000693664
0.000696512
0.000700161
0.000704843
0.000710976
0.000719613
0.000735935
0.000759535
0.000708489
0.00070884
0.00070826
0.000708535
0.000709176
0.000710225
0.000711747
0.000713894
0.000716915
0.000721002
0.000726421
0.000733935
0.000747787
0.000766976
0.000733561
0.000733773
0.000732722
0.000732346
0.000732291
0.000732593
0.00073338
0.000734829
0.000737163
0.000740456
0.000744779
0.000750622
0.00076103
0.000774407
0.000760919
0.000760875
0.00075923
0.000758197
0.000757581
0.000757324
0.000757524
0.000758278
0.000759721
0.00076182
0.000764444
0.000767739
0.000773278
0.000779154
0.000789555
0.000789348
0.000787251
0.000785542
0.000784264
0.000783364
0.000782824
0.000782685
0.000783112
0.00078398
0.000784692
0.000784675
0.000783833
0.000780508
0.000817618
0.000817145
0.000814294
0.000811671
0.000809674
0.000808244
0.000807346
0.000806947
0.000807046
0.000807135
0.000805978
0.000802335
0.000794313
0.000780545
0.000844722
0.000844524
0.000842171
0.000839432
0.000837058
0.000835305
0.00083422
0.000833696
0.00083343
0.000832457
0.000829019
0.000821329
0.00080536
0.000779951
0.000869642
0.000869812
0.000868749
0.000867175
0.000866041
0.000865372
0.000865198
0.000865266
0.000864921
0.00086282
0.000856833
0.000844596
0.000819525
0.000780868
0.000893551
0.000894661
0.000896352
0.000896925
0.000897914
0.000899488
0.000901441
0.000903085
0.000903284
0.000900447
0.000892232
0.000875558
0.000840646
0.000787199
0.000915426
0.000917671
0.0009227
0.000926138
0.000930153
0.000934891
0.000939906
0.000944129
0.00094601
0.0009435
0.000933674
0.000912629
0.000867328
0.000798164
0.000934088
0.000938126
0.000947399
0.00095406
0.000960964
0.000968615
0.000976548
0.000983539
0.000987663
0.000986154
0.00097516
0.000949888
0.00089402
0.00080887
0.000944416
0.00095014
0.000963513
0.000973481
0.000983411
0.000994101
0.00100505
0.00101497
0.00102162
0.00102163
0.00101033
0.000981854
0.00091645
0.000816308
0.000944925
0.000951588
0.000967367
0.000979701
0.000992164
0.00100562
0.00101974
0.00103294
0.00104244
0.00104449
0.00103378
0.00100343
0.000930209
0.000816463
0.000942352
0.000949916
0.000968377
0.00098247
0.000996063
0.00101071
0.00102616
0.00104097
0.00105205
0.00105496
0.00104395
0.00101139
0.000930612
0.000804085
0.000949228
0.000956861
0.000976905
0.000992636
0.00100797
0.00102371
0.00103959
0.00105436
0.00106495
0.00106703
0.00105435
0.0010182
0.000929653
0.000791474
0.000974669
0.000983449
0.00100571
0.00102232
0.00103791
0.0010538
0.00106944
0.00108341
0.00109287
0.00109353
0.00107917
0.0010412
0.000949762
0.000806838
0.000992158
0.000999894
0.00101911
0.00103375
0.00104821
0.00106355
0.00107936
0.00109413
0.00110476
0.0011073
0.00109601
0.00106299
0.000981404
0.000851018
0.000978511
0.000979195
0.000985718
0.000990507
0.000996594
0.00100459
0.00101431
0.00102493
0.0010346
0.00104044
0.00103823
0.00102185
0.000970034
0.000880728
-1.91544e-006
-2.24031e-006
-3.65961e-006
-4.61709e-006
-5.36625e-006
-5.96195e-006
-6.43547e-006
-6.78714e-006
-7.05252e-006
-7.21701e-006
-7.23424e-006
-7.05857e-006
-6.54193e-006
-6.10295e-006
3.4424e-006
3.23361e-006
1.6997e-006
5.95285e-007
-3.61962e-007
-1.28815e-006
-2.23393e-006
-3.22154e-006
-4.2472e-006
-5.23851e-006
-6.02921e-006
-6.36391e-006
-5.87876e-006
-5.07347e-006
1.36456e-005
1.3546e-005
1.31774e-005
1.28092e-005
1.23927e-005
1.18631e-005
1.119e-005
1.03649e-005
9.38072e-006
8.3351e-006
7.45026e-006
7.07846e-006
7.65312e-006
8.52457e-006
2.15004e-005
2.18894e-005
2.25126e-005
2.27763e-005
2.2824e-005
2.26847e-005
2.23114e-005
2.1689e-005
2.08003e-005
1.97275e-005
1.87228e-005
1.82217e-005
1.87502e-005
1.95553e-005
2.45763e-005
2.51987e-005
2.6397e-005
2.70658e-005
2.74104e-005
2.74728e-005
2.72151e-005
2.66283e-005
2.56825e-005
2.44577e-005
2.32409e-005
2.25414e-005
2.29658e-005
2.36916e-005
2.44923e-005
2.5226e-005
2.65903e-005
2.74399e-005
2.79353e-005
2.81094e-005
2.791e-005
2.7309e-005
2.6262e-005
2.48629e-005
2.34445e-005
2.26001e-005
2.30489e-005
2.3908e-005
2.19178e-005
2.26118e-005
2.37926e-005
2.45797e-005
2.50342e-005
2.51545e-005
2.48745e-005
2.41616e-005
2.29705e-005
2.14147e-005
1.98659e-005
1.89844e-005
1.96168e-005
2.08811e-005
1.80511e-005
1.85904e-005
1.93629e-005
1.99398e-005
2.02577e-005
2.02533e-005
1.98486e-005
1.90036e-005
1.76752e-005
1.60101e-005
1.44242e-005
1.36231e-005
1.45628e-005
1.64228e-005
1.49908e-005
1.54149e-005
1.5878e-005
1.63302e-005
1.65902e-005
1.65467e-005
1.61004e-005
1.52065e-005
1.38347e-005
1.21523e-005
1.05974e-005
9.91152e-006
1.11499e-005
1.35966e-005
1.47591e-005
1.52193e-005
1.57175e-005
1.63238e-005
1.6768e-005
1.69053e-005
1.66276e-005
1.58936e-005
1.46874e-005
1.31761e-005
1.17899e-005
1.12624e-005
1.26863e-005
1.54632e-005
1.82577e-005
1.89085e-005
1.98339e-005
2.08544e-005
2.16926e-005
2.22213e-005
2.23254e-005
2.19614e-005
2.11152e-005
1.9938e-005
1.8833e-005
1.84882e-005
1.99393e-005
2.26632e-005
2.50173e-005
2.59438e-005
2.74789e-005
2.90237e-005
3.03589e-005
3.13647e-005
3.19222e-005
3.19869e-005
3.15375e-005
3.07007e-005
2.98357e-005
2.95571e-005
3.07844e-005
3.30512e-005
3.34617e-005
3.45858e-005
3.66128e-005
3.85598e-005
4.0256e-005
4.16075e-005
4.24981e-005
4.2881e-005
4.2728e-005
4.21374e-005
4.14166e-005
4.10982e-005
4.19742e-005
4.36094e-005
4.22554e-005
4.341e-005
4.55613e-005
4.75627e-005
4.92783e-005
5.06388e-005
5.15534e-005
5.19923e-005
5.193e-005
5.144e-005
5.07722e-005
5.03747e-005
5.09322e-005
5.20233e-005
5.06655e-005
5.1646e-005
5.34925e-005
5.5216e-005
5.66649e-005
5.77395e-005
5.8369e-005
5.85511e-005
5.82887e-005
5.76612e-005
5.68868e-005
5.63537e-005
5.66815e-005
5.74723e-005
5.9428e-005
6.01323e-005
6.14931e-005
6.27649e-005
6.37689e-005
6.44072e-005
6.46135e-005
6.44009e-005
6.3793e-005
6.28734e-005
6.18473e-005
6.1077e-005
6.11667e-005
6.18101e-005
7.05154e-005
7.10042e-005
7.19963e-005
7.29151e-005
7.35574e-005
7.38216e-005
7.36612e-005
7.31025e-005
7.21872e-005
7.10054e-005
6.97524e-005
6.87465e-005
6.85631e-005
6.90431e-005
8.52428e-005
8.56341e-005
8.64789e-005
8.7274e-005
8.78144e-005
8.79862e-005
8.77445e-005
8.71107e-005
8.61319e-005
8.48934e-005
8.35616e-005
8.23905e-005
8.19132e-005
8.21649e-005
0.000103685
0.000104086
0.000104952
0.000105752
0.000106331
0.000106609
0.000106536
0.000106118
0.000105388
0.000104391
0.000103223
0.000102036
0.000101286
0.000101197
0.000124772
0.000125195
0.00012606
0.00012683
0.000127404
0.000127747
0.000127822
0.000127624
0.000127168
0.00012646
0.000125525
0.000124405
0.000123413
0.000122905
0.000146839
0.000147189
0.000147881
0.000148493
0.000148942
0.000149194
0.000149215
0.000148992
0.000148544
0.000147864
0.000146926
0.000145663
0.000144247
0.000143175
0.000169037
0.000169255
0.000169662
0.000169985
0.00017014
0.000170087
0.000169792
0.000169252
0.000168502
0.000167532
0.00016628
0.000164608
0.000162595
0.00016089
0.000191546
0.000191675
0.000191884
0.000191937
0.000191767
0.000191348
0.000190653
0.000189675
0.000188461
0.000187011
0.000185265
0.000183069
0.000180457
0.000178194
0.000214731
0.000214883
0.000215132
0.000215118
0.000214808
0.000214204
0.000213286
0.000212052
0.000210554
0.00020879
0.000206686
0.000204059
0.000200937
0.000198211
0.000238396
0.000238654
0.000239095
0.000239195
0.00023897
0.000238462
0.00023767
0.000236588
0.00023525
0.000233615
0.000231561
0.000228861
0.000225543
0.000222627
0.000261651
0.00026197
0.000262497
0.000262716
0.000262673
0.000262445
0.000262035
0.000261421
0.000260601
0.000259485
0.000257895
0.00025555
0.00025246
0.000249764
0.000283738
0.000283949
0.000284224
0.000284344
0.000284336
0.000284277
0.000284185
0.000284026
0.000283771
0.000283296
0.000282371
0.000280651
0.0002781
0.000275973
0.000304983
0.000304907
0.000304572
0.000304294
0.000304033
0.000303845
0.00030376
0.000303748
0.000303773
0.000303705
0.000303298
0.000302158
0.000300184
0.000298754
0.000327007
0.000326587
0.000325526
0.0003247
0.000323989
0.000323416
0.000323028
0.000322808
0.000322728
0.000322665
0.000322371
0.000321419
0.000319656
0.000318662
0.000351892
0.000351232
0.000349631
0.000348324
0.000347154
0.000346143
0.00034536
0.000344803
0.000344438
0.000344123
0.000343587
0.000342373
0.000340293
0.000339195
0.000380797
0.000380089
0.000378304
0.000376748
0.000375302
0.000374021
0.000372994
0.000372213
0.000371614
0.000371012
0.000370095
0.000368366
0.000365572
0.000363789
0.000412926
0.000412332
0.000410675
0.00040912
0.000407642
0.000406337
0.000405301
0.000404516
0.000403875
0.000403134
0.00040193
0.000399705
0.000396078
0.000393226
0.000445579
0.000445124
0.000443664
0.000442198
0.000440801
0.00043961
0.000438726
0.000438116
0.000437634
0.000436983
0.000435753
0.000433317
0.000429124
0.000425303
0.000475752
0.000475316
0.000473868
0.00047237
0.000470964
0.000469805
0.000468999
0.000468509
0.000468161
0.000467635
0.000466495
0.00046407
0.000459643
0.000455298
0.000502098
0.000501544
0.000499863
0.000498136
0.000496519
0.000495163
0.000494182
0.000493545
0.000493061
0.000492397
0.000491107
0.000488492
0.000483739
0.000479119
0.000525165
0.000524461
0.000522467
0.000520429
0.000518503
0.000516828
0.000515518
0.00051454
0.000513675
0.000512559
0.000510727
0.000507469
0.000501937
0.000496838
0.000545818
0.000545031
0.000542853
0.000540617
0.000538494
0.000536604
0.000535044
0.000533761
0.000532493
0.000530837
0.00052831
0.000524192
0.000517612
0.00051179
0.00056398
0.000563172
0.000560983
0.000558727
0.000556602
0.00055471
0.00055313
0.000551788
0.000550384
0.00054848
0.000545571
0.000540912
0.000533556
0.000527204
0.000579274
0.00057845
0.000576313
0.000574141
0.00057215
0.000570429
0.000569052
0.000567936
0.000566747
0.000565008
0.00056218
0.000557463
0.000549807
0.000543405
0.000592175
0.000591366
0.000589299
0.000587257
0.000585452
0.000583954
0.000582825
0.000581963
0.000581
0.000579413
0.000576636
0.000571829
0.000563911
0.000557676
0.000603188
0.000602506
0.000600596
0.000598747
0.000597156
0.000595867
0.000594907
0.000594147
0.000593179
0.00059144
0.000588351
0.000583074
0.000574585
0.000568318
0.000610981
0.000610506
0.000608863
0.000607291
0.000605984
0.000604965
0.000604234
0.000603636
0.000602733
0.000600929
0.000597618
0.000591959
0.000582978
0.000576589
0.000613174
0.000612846
0.000611516
0.000610271
0.000609314
0.000608656
0.000608286
0.000608043
0.000607477
0.000605965
0.000602881
0.000597361
0.000588456
0.000582377
0.000609698
0.00060942
0.000608457
0.000607564
0.000606953
0.000606625
0.000606564
0.000606607
0.000606306
0.000605037
0.000602187
0.000596918
0.00058837
0.000583047
0.000603851
0.000603669
0.000603233
0.000602771
0.000602519
0.000602476
0.000602604
0.000602726
0.000602397
0.000601003
0.000597969
0.000592535
0.000584022
0.000579263
0.000598946
0.000598999
0.000599232
0.000599274
0.000599426
0.000599696
0.000600016
0.000600187
0.000599762
0.000598141
0.000594778
0.000588993
0.000580301
0.000575746
0.000595276
0.000595585
0.000596386
0.000596812
0.00059724
0.000597702
0.000598119
0.000598287
0.00059778
0.000596029
0.000592525
0.00058665
0.000578097
0.000573975
0.000591554
0.000592004
0.000593108
0.000593659
0.000594092
0.000594462
0.000594696
0.000594601
0.000593796
0.000591764
0.000588044
0.000582088
0.0005738
0.000570429
0.000587599
0.000588104
0.000589334
0.000589892
0.000590232
0.000590411
0.000590349
0.000589847
0.000588539
0.000585936
0.000581606
0.000575078
0.000566542
0.000563591
0.000583901
0.000584429
0.00058565
0.000586175
0.000586434
0.000586475
0.000586187
0.000585343
0.000583566
0.000580373
0.000575339
0.000568059
0.000559045
0.000556287
0.000580216
0.000580661
0.000581562
0.000581814
0.000581771
0.00058146
0.000580765
0.000579454
0.000577182
0.000573515
0.000568071
0.000560518
0.000551682
0.000549827
0.000576418
0.000576658
0.000576921
0.000576605
0.000575943
0.000574942
0.000573504
0.000571431
0.000568454
0.000564238
0.000558488
0.00055097
0.000542837
0.000542584
0.000573338
0.000573405
0.000573042
0.000572177
0.00057093
0.000569293
0.000567189
0.000564439
0.000560827
0.000556084
0.000549975
0.000542346
0.00053468
0.000535762
0.000571171
0.000571188
0.000570426
0.00056927
0.000567744
0.000565843
0.0005635
0.00056055
0.0005568
0.000552003
0.000545931
0.000538445
0.00053127
0.000533345
0.000568632
0.000568638
0.000567622
0.000566339
0.000564721
0.000562767
0.000560438
0.0005576
0.000554111
0.000549768
0.000544342
0.000537681
0.000531611
0.000534944
0.000564852
0.000564829
0.000563656
0.000562342
0.000560725
0.000558811
0.000556587
0.00055395
0.000550804
0.000546992
0.000542299
0.000536568
0.000531701
0.000536307
0.000560207
0.000560164
0.000558956
0.000557765
0.00055635
0.000554707
0.000552833
0.000550622
0.000547977
0.000544736
0.000540677
0.000535654
0.000531681
0.00053724
0.000554983
0.0005549
0.000553672
0.000552672
0.000551578
0.000550359
0.000549035
0.000547511
0.000545697
0.000543435
0.00054049
0.000536709
0.00053414
0.000540935
0.000549325
0.000549168
0.000547873
0.000546981
0.000546105
0.000545212
0.000544375
0.000543565
0.000542754
0.00054183
0.00054056
0.000538733
0.000538265
0.000546671
0.000544161
0.000543983
0.000542734
0.000541931
0.000541192
0.000540553
0.000540141
0.000539986
0.000540106
0.000540411
0.000540637
0.000540488
0.000541729
0.000551257
0.000540577
0.000540461
0.000539483
0.000538915
0.000538421
0.000538108
0.000538148
0.000538595
0.000539471
0.000540671
0.000541907
0.000542856
0.000545229
0.000555437
0.000539129
0.000539083
0.000538478
0.000538284
0.000538187
0.000538287
0.000538787
0.000539764
0.000541266
0.000543226
0.000545393
0.000547484
0.000551162
0.000562249
0.000540492
0.000540526
0.000540279
0.000540429
0.000540717
0.000541262
0.000542269
0.000543826
0.000546015
0.000548809
0.000551996
0.000555303
0.000560283
0.000572104
0.000544984
0.000545099
0.0005451
0.000545424
0.000545926
0.000546811
0.000548292
0.000550453
0.000553364
0.000556991
0.000561107
0.000565422
0.000571406
0.000583633
0.000551309
0.000551344
0.000551247
0.000551509
0.000552044
0.000553066
0.00055482
0.000557409
0.000560918
0.000565321
0.000570388
0.000575811
0.00058298
0.000595844
0.000558245
0.000557987
0.000557405
0.000557348
0.000557748
0.000558785
0.000560721
0.00056368
0.000567772
0.000572979
0.000579047
0.000585597
0.000593889
0.000607341
0.000566412
0.000565844
0.000564693
0.000564196
0.000564334
0.000565316
0.000567394
0.000570663
0.000575193
0.000580906
0.000587478
0.000594475
0.000603123
0.000616644
0.000576315
0.000575554
0.000573998
0.000573151
0.000573034
0.000573838
0.000575806
0.000579004
0.000583462
0.000589076
0.000595521
0.000602395
0.000610989
0.000624508
0.000587134
0.000586322
0.00058465
0.000583653
0.000583386
0.00058403
0.000585811
0.00058879
0.000593015
0.000598412
0.000604688
0.00061146
0.000620025
0.00063355
0.000597997
0.000597286
0.000595846
0.000595
0.000594857
0.000595626
0.000597505
0.000600536
0.000604761
0.000610113
0.000616314
0.000623
0.000631488
0.000644923
0.000607969
0.000607399
0.000606317
0.000605863
0.000606133
0.000607262
0.000609402
0.000612573
0.000616826
0.000622134
0.000628301
0.000635057
0.000643813
0.000657633
0.000616402
0.000615906
0.000615042
0.000614872
0.000615443
0.000616834
0.000619167
0.000622473
0.000626854