/*--------------------------------*- C++ -*----------------------------------*\
| =========                 |                                                 |
| \\      /  F ield         | OpenFOAM: The Open Source CFD Toolbox           |
|  \\    /   O peration     | Version:  5.x                                   |
|   \\  /    A nd           | Web:      www.OpenFOAM.org                      |
|    \\/     M anipulation  |                                                 |
\*---------------------------------------------------------------------------*/
/*   Windows 32 and 64 bit porting by blueCAPE: http://www.bluecape.com.pt   *\
|  Based on Windows porting (2.0.x v4) by Symscape: http://www.symscape.com   |
\*---------------------------------------------------------------------------*/
FoamFile
{
    version     2.0;
    format      ascii;
    class       volScalarField;
    location    "1.1";
    object      p;
}
// * * * * * * * * * * * * * * * * * * * * * * * * * * * * * * * * * * * * * //

dimensions      [0 2 -2 0 0 0 0];

internalField   nonuniform List<scalar> 
141075
(
-6.80659e-007
-6.81258e-007
-6.8126e-007
-6.81371e-007
-6.81408e-007
-6.81361e-007
-6.81264e-007
-6.81122e-007
-6.80937e-007
-6.80714e-007
-6.80464e-007
-6.80185e-007
-6.79877e-007
-6.79437e-007
-2.07642e-006
-2.07657e-006
-2.07595e-006
-2.07549e-006
-2.07507e-006
-2.07456e-006
-2.07394e-006
-2.07323e-006
-2.0724e-006
-2.07149e-006
-2.07053e-006
-2.0696e-006
-2.06885e-006
-2.06832e-006
-3.509e-006
-3.508e-006
-3.50647e-006
-3.50511e-006
-3.50383e-006
-3.50254e-006
-3.50117e-006
-3.49968e-006
-3.49803e-006
-3.49625e-006
-3.49443e-006
-3.49273e-006
-3.49148e-006
-3.49079e-006
-4.93976e-006
-4.93825e-006
-4.93599e-006
-4.93383e-006
-4.93174e-006
-4.9296e-006
-4.92737e-006
-4.92501e-006
-4.92249e-006
-4.91984e-006
-4.91719e-006
-4.91474e-006
-4.91299e-006
-4.91213e-006
-6.36786e-006
-6.36586e-006
-6.36289e-006
-6.36008e-006
-6.35736e-006
-6.35454e-006
-6.35158e-006
-6.34843e-006
-6.34508e-006
-6.34158e-006
-6.33813e-006
-6.33501e-006
-6.33285e-006
-6.33192e-006
-7.79369e-006
-7.79113e-006
-7.78729e-006
-7.78376e-006
-7.7804e-006
-7.77696e-006
-7.77335e-006
-7.76952e-006
-7.76542e-006
-7.76115e-006
-7.75693e-006
-7.75311e-006
-7.75049e-006
-7.74942e-006
-9.21812e-006
-9.2151e-006
-9.21054e-006
-9.20629e-006
-9.20222e-006
-9.19809e-006
-9.19378e-006
-9.1892e-006
-9.18433e-006
-9.17925e-006
-9.17423e-006
-9.16966e-006
-9.16653e-006
-9.16528e-006
-1.06401e-005
-1.06367e-005
-1.06314e-005
-1.06264e-005
-1.06217e-005
-1.06168e-005
-1.06118e-005
-1.06064e-005
-1.06008e-005
-1.05949e-005
-1.05891e-005
-1.05838e-005
-1.05802e-005
-1.05787e-005
-1.20591e-005
-1.20551e-005
-1.20491e-005
-1.20434e-005
-1.2038e-005
-1.20325e-005
-1.20268e-005
-1.20208e-005
-1.20144e-005
-1.20078e-005
-1.20013e-005
-1.19954e-005
-1.19914e-005
-1.19897e-005
-1.3475e-005
-1.34705e-005
-1.34637e-005
-1.34573e-005
-1.34512e-005
-1.34451e-005
-1.34387e-005
-1.3432e-005
-1.34249e-005
-1.34176e-005
-1.34104e-005
-1.34039e-005
-1.33993e-005
-1.33972e-005
-1.48876e-005
-1.48826e-005
-1.4875e-005
-1.4868e-005
-1.48612e-005
-1.48544e-005
-1.48474e-005
-1.484e-005
-1.48322e-005
-1.48242e-005
-1.48163e-005
-1.48091e-005
-1.48042e-005
-1.48004e-005
-1.62965e-005
-1.6291e-005
-1.62827e-005
-1.62749e-005
-1.62675e-005
-1.62601e-005
-1.62524e-005
-1.62444e-005
-1.6236e-005
-1.62274e-005
-1.62188e-005
-1.62109e-005
-1.6205e-005
-1.62017e-005
-1.7701e-005
-1.7695e-005
-1.76859e-005
-1.76775e-005
-1.76694e-005
-1.76613e-005
-1.76531e-005
-1.76445e-005
-1.76356e-005
-1.76264e-005
-1.76174e-005
-1.7609e-005
-1.76024e-005
-1.75988e-005
-1.9101e-005
-1.90944e-005
-1.90846e-005
-1.90754e-005
-1.90667e-005
-1.90579e-005
-1.9049e-005
-1.90398e-005
-1.90303e-005
-1.90206e-005
-1.90111e-005
-1.9002e-005
-1.89947e-005
-1.89905e-005
-2.04962e-005
-2.04891e-005
-2.04785e-005
-2.04686e-005
-2.04592e-005
-2.04498e-005
-2.04402e-005
-2.04304e-005
-2.04202e-005
-2.04099e-005
-2.03997e-005
-2.039e-005
-2.03818e-005
-2.03767e-005
-2.18863e-005
-2.18787e-005
-2.18673e-005
-2.18567e-005
-2.18467e-005
-2.18366e-005
-2.18264e-005
-2.18159e-005
-2.18052e-005
-2.17944e-005
-2.17837e-005
-2.17733e-005
-2.17643e-005
-2.17584e-005
-2.32709e-005
-2.32628e-005
-2.32506e-005
-2.32393e-005
-2.32286e-005
-2.32179e-005
-2.3207e-005
-2.3196e-005
-2.31849e-005
-2.31736e-005
-2.31625e-005
-2.31517e-005
-2.31419e-005
-2.31352e-005
-2.46495e-005
-2.46408e-005
-2.46278e-005
-2.46158e-005
-2.46044e-005
-2.4593e-005
-2.45816e-005
-2.45701e-005
-2.45585e-005
-2.45468e-005
-2.45352e-005
-2.45239e-005
-2.45133e-005
-2.45057e-005
-2.60219e-005
-2.60126e-005
-2.59989e-005
-2.59861e-005
-2.59739e-005
-2.59619e-005
-2.59498e-005
-2.59377e-005
-2.59255e-005
-2.59133e-005
-2.59012e-005
-2.58892e-005
-2.58778e-005
-2.58692e-005
-2.7388e-005
-2.73781e-005
-2.73635e-005
-2.73499e-005
-2.7337e-005
-2.73242e-005
-2.73114e-005
-2.72986e-005
-2.72858e-005
-2.7273e-005
-2.72603e-005
-2.72476e-005
-2.72352e-005
-2.72257e-005
-2.87475e-005
-2.8737e-005
-2.87215e-005
-2.87071e-005
-2.86934e-005
-2.86798e-005
-2.86663e-005
-2.86528e-005
-2.86392e-005
-2.86258e-005
-2.86125e-005
-2.85991e-005
-2.85858e-005
-2.85754e-005
-3.01003e-005
-3.00891e-005
-3.00727e-005
-3.00574e-005
-3.00429e-005
-3.00286e-005
-3.00142e-005
-3e-005
-2.99858e-005
-2.99717e-005
-2.99577e-005
-2.99437e-005
-2.99296e-005
-2.99184e-005
-3.14462e-005
-3.14344e-005
-3.14171e-005
-3.14008e-005
-3.13855e-005
-3.13703e-005
-3.13552e-005
-3.13402e-005
-3.13253e-005
-3.13105e-005
-3.12959e-005
-3.12812e-005
-3.12663e-005
-3.12545e-005
-3.27853e-005
-3.27728e-005
-3.27544e-005
-3.27373e-005
-3.27211e-005
-3.2705e-005
-3.26891e-005
-3.26733e-005
-3.26576e-005
-3.26421e-005
-3.26268e-005
-3.26113e-005
-3.25957e-005
-3.25834e-005
-3.41176e-005
-3.41045e-005
-3.4085e-005
-3.40668e-005
-3.40497e-005
-3.40328e-005
-3.4016e-005
-3.39993e-005
-3.39828e-005
-3.39666e-005
-3.39505e-005
-3.39342e-005
-3.39179e-005
-3.39051e-005
-3.54434e-005
-3.54296e-005
-3.5409e-005
-3.53898e-005
-3.53717e-005
-3.53539e-005
-3.53361e-005
-3.53186e-005
-3.53012e-005
-3.52841e-005
-3.52671e-005
-3.52501e-005
-3.52329e-005
-3.52196e-005
-3.67628e-005
-3.67482e-005
-3.67265e-005
-3.67063e-005
-3.66872e-005
-3.66684e-005
-3.66497e-005
-3.66312e-005
-3.66129e-005
-3.65948e-005
-3.65769e-005
-3.6559e-005
-3.65411e-005
-3.65272e-005
-3.80761e-005
-3.80607e-005
-3.80379e-005
-3.80165e-005
-3.79964e-005
-3.79766e-005
-3.79569e-005
-3.79374e-005
-3.79181e-005
-3.7899e-005
-3.78801e-005
-3.78612e-005
-3.78425e-005
-3.78278e-005
-3.93833e-005
-3.93671e-005
-3.93431e-005
-3.93206e-005
-3.92994e-005
-3.92785e-005
-3.92577e-005
-3.92371e-005
-3.92167e-005
-3.91966e-005
-3.91767e-005
-3.91569e-005
-3.91372e-005
-3.91219e-005
-4.06847e-005
-4.06677e-005
-4.06423e-005
-4.06187e-005
-4.05964e-005
-4.05743e-005
-4.05524e-005
-4.05307e-005
-4.05092e-005
-4.04879e-005
-4.04669e-005
-4.04461e-005
-4.04256e-005
-4.04099e-005
-4.19808e-005
-4.19628e-005
-4.19361e-005
-4.19112e-005
-4.18877e-005
-4.18645e-005
-4.18415e-005
-4.18186e-005
-4.17959e-005
-4.17735e-005
-4.17514e-005
-4.17296e-005
-4.17082e-005
-4.1692e-005
-4.32721e-005
-4.32532e-005
-4.3225e-005
-4.31988e-005
-4.31741e-005
-4.31497e-005
-4.31254e-005
-4.31014e-005
-4.30775e-005
-4.30539e-005
-4.30307e-005
-4.30078e-005
-4.29855e-005
-4.29688e-005
-4.45594e-005
-4.45396e-005
-4.451e-005
-4.44825e-005
-4.44566e-005
-4.44308e-005
-4.44053e-005
-4.43799e-005
-4.43547e-005
-4.43299e-005
-4.43054e-005
-4.42813e-005
-4.42579e-005
-4.42407e-005
-4.58433e-005
-4.58224e-005
-4.57913e-005
-4.57625e-005
-4.57352e-005
-4.57081e-005
-4.56813e-005
-4.56546e-005
-4.56281e-005
-4.56019e-005
-4.55761e-005
-4.55507e-005
-4.55262e-005
-4.55083e-005
-4.71251e-005
-4.71029e-005
-4.70703e-005
-4.704e-005
-4.70112e-005
-4.69827e-005
-4.69544e-005
-4.69262e-005
-4.68983e-005
-4.68706e-005
-4.68434e-005
-4.68166e-005
-4.67908e-005
-4.67722e-005
-4.84039e-005
-4.83807e-005
-4.83465e-005
-4.83147e-005
-4.82845e-005
-4.82546e-005
-4.82248e-005
-4.81951e-005
-4.81657e-005
-4.81366e-005
-4.81078e-005
-4.80795e-005
-4.80524e-005
-4.8033e-005
-4.96822e-005
-4.96578e-005
-4.96218e-005
-4.95883e-005
-4.95565e-005
-4.9525e-005
-4.94935e-005
-4.94623e-005
-4.94312e-005
-4.94004e-005
-4.937e-005
-4.93401e-005
-4.93115e-005
-4.92912e-005
-5.09602e-005
-5.09344e-005
-5.08966e-005
-5.08613e-005
-5.08278e-005
-5.07946e-005
-5.07614e-005
-5.07284e-005
-5.06956e-005
-5.0663e-005
-5.06309e-005
-5.05992e-005
-5.05689e-005
-5.05476e-005
-5.22392e-005
-5.2212e-005
-5.21721e-005
-5.21349e-005
-5.20996e-005
-5.20645e-005
-5.20295e-005
-5.19945e-005
-5.19598e-005
-5.19252e-005
-5.18911e-005
-5.18575e-005
-5.18255e-005
-5.18031e-005
-5.35205e-005
-5.34917e-005
-5.34496e-005
-5.34104e-005
-5.3373e-005
-5.33359e-005
-5.32987e-005
-5.32617e-005
-5.32248e-005
-5.3188e-005
-5.31518e-005
-5.3116e-005
-5.30821e-005
-5.30586e-005
-5.48057e-005
-5.47749e-005
-5.47304e-005
-5.46889e-005
-5.46494e-005
-5.46099e-005
-5.45705e-005
-5.45311e-005
-5.44918e-005
-5.44527e-005
-5.4414e-005
-5.4376e-005
-5.434e-005
-5.43153e-005
-5.60963e-005
-5.60635e-005
-5.60163e-005
-5.59723e-005
-5.59303e-005
-5.58883e-005
-5.58463e-005
-5.58044e-005
-5.57625e-005
-5.57207e-005
-5.56793e-005
-5.56386e-005
-5.56004e-005
-5.55746e-005
-5.73943e-005
-5.73592e-005
-5.73089e-005
-5.72621e-005
-5.72174e-005
-5.71726e-005
-5.71277e-005
-5.70828e-005
-5.7038e-005
-5.69932e-005
-5.69488e-005
-5.69052e-005
-5.68647e-005
-5.68378e-005
-5.87015e-005
-5.86637e-005
-5.86101e-005
-5.85601e-005
-5.85124e-005
-5.84644e-005
-5.84163e-005
-5.83681e-005
-5.83199e-005
-5.82718e-005
-5.8224e-005
-5.81772e-005
-5.81343e-005
-5.81064e-005
-6.00203e-005
-5.99795e-005
-5.9922e-005
-5.98684e-005
-5.98172e-005
-5.97657e-005
-5.97139e-005
-5.96621e-005
-5.96102e-005
-5.95582e-005
-5.95066e-005
-5.94564e-005
-5.94109e-005
-5.93823e-005
-6.13533e-005
-6.1309e-005
-6.12472e-005
-6.11896e-005
-6.11345e-005
-6.10788e-005
-6.1023e-005
-6.0967e-005
-6.09108e-005
-6.08545e-005
-6.07987e-005
-6.07445e-005
-6.06964e-005
-6.06672e-005
-6.27035e-005
-6.26553e-005
-6.25885e-005
-6.25262e-005
-6.24667e-005
-6.24064e-005
-6.23458e-005
-6.2285e-005
-6.2224e-005
-6.21629e-005
-6.21023e-005
-6.20436e-005
-6.19926e-005
-6.1963e-005
-6.40739e-005
-6.4021e-005
-6.39486e-005
-6.38811e-005
-6.38165e-005
-6.37509e-005
-6.3685e-005
-6.36188e-005
-6.35523e-005
-6.34856e-005
-6.34194e-005
-6.33558e-005
-6.33017e-005
-6.3272e-005
-6.54679e-005
-6.54096e-005
-6.53306e-005
-6.52572e-005
-6.51869e-005
-6.51154e-005
-6.50433e-005
-6.4971e-005
-6.48982e-005
-6.4825e-005
-6.47526e-005
-6.46833e-005
-6.46257e-005
-6.45963e-005
-6.68893e-005
-6.68248e-005
-6.67383e-005
-6.66581e-005
-6.65812e-005
-6.65029e-005
-6.64239e-005
-6.63445e-005
-6.62645e-005
-6.61841e-005
-6.61043e-005
-6.60285e-005
-6.59671e-005
-6.59381e-005
-6.8342e-005
-6.82704e-005
-6.81753e-005
-6.80874e-005
-6.8003e-005
-6.79169e-005
-6.783e-005
-6.77426e-005
-6.76544e-005
-6.75655e-005
-6.74773e-005
-6.73939e-005
-6.73282e-005
-6.72999e-005
-6.98299e-005
-6.975e-005
-6.96452e-005
-6.95485e-005
-6.94557e-005
-6.93607e-005
-6.92649e-005
-6.91683e-005
-6.90707e-005
-6.89721e-005
-6.88743e-005
-6.87821e-005
-6.87116e-005
-6.86843e-005
-7.1357e-005
-7.12676e-005
-7.11517e-005
-7.10449e-005
-7.09425e-005
-7.08375e-005
-7.07315e-005
-7.06245e-005
-7.05163e-005
-7.04067e-005
-7.02979e-005
-7.01957e-005
-7.01197e-005
-7.00938e-005
-7.29274e-005
-7.2827e-005
-7.26983e-005
-7.25801e-005
-7.24669e-005
-7.23505e-005
-7.2233e-005
-7.21143e-005
-7.1994e-005
-7.18719e-005
-7.17506e-005
-7.16372e-005
-7.1555e-005
-7.15309e-005
-7.45445e-005
-7.44315e-005
-7.42883e-005
-7.41574e-005
-7.40319e-005
-7.39027e-005
-7.37722e-005
-7.36403e-005
-7.35064e-005
-7.33703e-005
-7.32348e-005
-7.31087e-005
-7.30196e-005
-7.29978e-005
-7.62119e-005
-7.60845e-005
-7.59249e-005
-7.57794e-005
-7.56402e-005
-7.54967e-005
-7.53517e-005
-7.52051e-005
-7.50559e-005
-7.4904e-005
-7.47526e-005
-7.46122e-005
-7.45156e-005
-7.44966e-005
-7.79328e-005
-7.7789e-005
-7.76107e-005
-7.74488e-005
-7.72943e-005
-7.71347e-005
-7.69733e-005
-7.68102e-005
-7.66441e-005
-7.64745e-005
-7.63053e-005
-7.6149e-005
-7.60442e-005
-7.60289e-005
-7.97101e-005
-7.95477e-005
-7.93483e-005
-7.91681e-005
-7.89963e-005
-7.88187e-005
-7.86392e-005
-7.84577e-005
-7.82726e-005
-7.80833e-005
-7.78944e-005
-7.77204e-005
-7.76068e-005
-7.75961e-005
-8.15457e-005
-8.13622e-005
-8.11391e-005
-8.09384e-005
-8.07474e-005
-8.05497e-005
-8.035e-005
-8.01481e-005
-7.99419e-005
-7.97308e-005
-7.95198e-005
-7.93263e-005
-7.92032e-005
-7.91984e-005
-8.34413e-005
-8.32341e-005
-8.29844e-005
-8.27608e-005
-8.25485e-005
-8.23286e-005
-8.21067e-005
-8.18822e-005
-8.16528e-005
-8.14176e-005
-8.11823e-005
-8.09671e-005
-8.08339e-005
-8.08363e-005
-8.53978e-005
-8.51639e-005
-8.48846e-005
-8.46357e-005
-8.43998e-005
-8.41554e-005
-8.39089e-005
-8.36597e-005
-8.34048e-005
-8.3143e-005
-8.2881e-005
-8.26422e-005
-8.24982e-005
-8.25095e-005
-8.7415e-005
-8.71516e-005
-8.68395e-005
-8.65625e-005
-8.63007e-005
-8.60294e-005
-8.5756e-005
-8.54797e-005
-8.51969e-005
-8.49062e-005
-8.46149e-005
-8.43504e-005
-8.41951e-005
-8.42171e-005
-8.94918e-005
-8.91955e-005
-8.88473e-005
-8.85396e-005
-8.82495e-005
-8.79488e-005
-8.76462e-005
-8.73404e-005
-8.70275e-005
-8.67052e-005
-8.63823e-005
-8.609e-005
-8.59229e-005
-8.59574e-005
-9.16259e-005
-9.12936e-005
-9.09056e-005
-9.05644e-005
-9.02436e-005
-8.99111e-005
-8.95769e-005
-8.92393e-005
-8.88938e-005
-8.85376e-005
-8.81805e-005
-8.78582e-005
-8.7679e-005
-8.77282e-005
-9.3814e-005
-9.34422e-005
-9.30108e-005
-9.26333e-005
-9.22792e-005
-9.19124e-005
-9.15441e-005
-9.11725e-005
-9.0792e-005
-9.03994e-005
-9.00058e-005
-8.96515e-005
-8.94599e-005
-8.95261e-005
-9.60509e-005
-9.56362e-005
-9.5158e-005
-9.47412e-005
-9.43514e-005
-9.39476e-005
-9.35429e-005
-9.3135e-005
-9.27172e-005
-9.22861e-005
-9.18535e-005
-9.14655e-005
-9.12613e-005
-9.1347e-005
-9.83296e-005
-9.78687e-005
-9.73401e-005
-9.68815e-005
-9.64536e-005
-9.60107e-005
-9.55674e-005
-9.51209e-005
-9.46639e-005
-9.41919e-005
-9.37182e-005
-9.32947e-005
-9.30779e-005
-9.31856e-005
-0.000100642
-0.000100132
-9.95493e-005
-9.90462e-005
-9.85781e-005
-9.80939e-005
-9.76099e-005
-9.71232e-005
-9.66249e-005
-9.61101e-005
-9.55934e-005
-9.51328e-005
-9.49037e-005
-9.50358e-005
-0.000102979
-0.000102416
-0.000101776
-0.000101226
-0.000100716
-0.000100188
-9.96618e-005
-9.9133e-005
-9.85919e-005
-9.80327e-005
-9.74714e-005
-9.69725e-005
-9.67313e-005
-9.68905e-005
-0.000105327
-0.000104709
-0.000104009
-0.00010341
-0.000102856
-0.000102283
-0.000101713
-0.00010114
-0.000100555
-9.99503e-005
-9.93432e-005
-9.88052e-005
-9.85526e-005
-9.87412e-005
-0.000107673
-0.000106997
-0.000106235
-0.000105585
-0.000104985
-0.000104366
-0.00010375
-0.000103134
-0.000102504
-0.000101852
-0.000101199
-0.000100621
-0.000100358
-0.000100578
-0.000110001
-0.000109265
-0.000108439
-0.000107737
-0.00010709
-0.000106424
-0.000105762
-0.0001051
-0.000104425
-0.000103727
-0.000103026
-0.000102409
-0.000102136
-0.000102391
-0.000112293
-0.000111496
-0.000110604
-0.000109848
-0.000109155
-0.00010844
-0.000107733
-0.000107026
-0.000106305
-0.00010556
-0.000104813
-0.000104157
-0.000103876
-0.000104167
-0.000114529
-0.00011367
-0.000112712
-0.000111902
-0.000111162
-0.0001104
-0.000109646
-0.000108895
-0.000108129
-0.000107339
-0.000106546
-0.000105852
-0.000105565
-0.000105893
-0.000116688
-0.000115767
-0.000114743
-0.00011388
-0.000113093
-0.000112284
-0.000111485
-0.00011069
-0.000109882
-0.000109047
-0.00010821
-0.000107481
-0.000107189
-0.000107556
-0.000118747
-0.000117765
-0.000116676
-0.000115761
-0.000114929
-0.000114074
-0.000113231
-0.000112395
-0.000111545
-0.000110668
-0.00010979
-0.000109027
-0.000108733
-0.00010914
-0.000120684
-0.000119643
-0.000118491
-0.000117526
-0.00011665
-0.000115751
-0.000114868
-0.000113992
-0.000113103
-0.000112187
-0.00011127
-0.000110477
-0.000110183
-0.000110631
-0.000122478
-0.000121381
-0.000120169
-0.000119157
-0.00011824
-0.0001173
-0.000116378
-0.000115465
-0.000114541
-0.000113588
-0.000112637
-0.000111816
-0.000111525
-0.000112014
-0.00012411
-0.000122961
-0.000121693
-0.000120637
-0.000119681
-0.000118704
-0.000117746
-0.000116801
-0.000115844
-0.00011486
-0.000113877
-0.000113034
-0.000112749
-0.000113277
-0.000125564
-0.000124367
-0.000123049
-0.000121953
-0.000120964
-0.000119952
-0.000118963
-0.000117988
-0.000117004
-0.000115992
-0.000114984
-0.000114123
-0.000113846
-0.000114414
-0.000126822
-0.000125585
-0.000124223
-0.000123093
-0.000122075
-0.000121035
-0.00012002
-0.000119021
-0.000118014
-0.000116981
-0.000115953
-0.00011508
-0.000114814
-0.00011542
-0.000127873
-0.000126602
-0.000125205
-0.000124048
-0.000123007
-0.000121945
-0.00012091
-0.000119893
-0.000118871
-0.000117824
-0.000116783
-0.000115904
-0.000115655
-0.000116296
-0.000128706
-0.00012741
-0.000125986
-0.000124809
-0.000123753
-0.000122676
-0.000121628
-0.000120602
-0.000119571
-0.000118518
-0.000117474
-0.000116597
-0.000116368
-0.000117042
-0.000129314
-0.000128003
-0.000126563
-0.000125374
-0.000124309
-0.000123225
-0.000122172
-0.000121143
-0.000120113
-0.000119062
-0.000118023
-0.000117157
-0.000116952
-0.000117656
-0.000129694
-0.000128379
-0.000126934
-0.000125742
-0.000124676
-0.000123591
-0.00012254
-0.000121517
-0.000120495
-0.000119455
-0.000118429
-0.00011758
-0.000117401
-0.000118131
-0.000129839
-0.000128532
-0.000127094
-0.00012591
-0.000124852
-0.000123776
-0.000122735
-0.000121723
-0.000120716
-0.000119693
-0.000118688
-0.000117863
-0.000117711
-0.000118459
-0.000129749
-0.000128461
-0.000127044
-0.000125878
-0.000124837
-0.000123779
-0.000122756
-0.000121764
-0.000120778
-0.00011978
-0.000118802
-0.000118005
-0.000117881
-0.00011864
-0.000129432
-0.000128176
-0.000126791
-0.000125652
-0.000124636
-0.000123604
-0.000122608
-0.000121642
-0.000120685
-0.000119719
-0.000118774
-0.000118011
-0.000117914
-0.000118676
-0.000128898
-0.000127686
-0.000126349
-0.000125246
-0.000124262
-0.000123263
-0.000122299
-0.000121367
-0.000120445
-0.000119516
-0.000118611
-0.000117887
-0.000117815
-0.000118573
-0.000128157
-0.000127004
-0.000125726
-0.000124672
-0.00012373
-0.000122772
-0.000121847
-0.000120954
-0.000120072
-0.000119185
-0.000118325
-0.000117644
-0.000117596
-0.000118339
-0.00012723
-0.000126147
-0.000124945
-0.000123949
-0.000123057
-0.000122149
-0.000121272
-0.000120423
-0.000119586
-0.000118746
-0.000117935
-0.000117298
-0.00011727
-0.000117987
-0.000126144
-0.000125144
-0.000124029
-0.000123103
-0.000122269
-0.000121419
-0.000120596
-0.000119798
-0.00011901
-0.000118221
-0.000117461
-0.000116867
-0.000116851
-0.000117529
-0.000124933
-0.000124027
-0.000123012
-0.000122162
-0.000121395
-0.000120609
-0.000119846
-0.000119103
-0.000118369
-0.000117634
-0.000116926
-0.000116374
-0.000116361
-0.000116985
-0.000123641
-0.000122842
-0.000121938
-0.000121174
-0.000120477
-0.00011976
-0.00011906
-0.000118375
-0.000117695
-0.000117014
-0.000116358
-0.000115847
-0.000115831
-0.000116389
-0.000122319
-0.000121632
-0.000120848
-0.000120175
-0.000119553
-0.000118909
-0.000118273
-0.000117646
-0.000117021
-0.000116393
-0.000115789
-0.000115319
-0.000115295
-0.000115776
-0.000121032
-0.000120464
-0.000119805
-0.000119224
-0.000118675
-0.000118102
-0.000117527
-0.000116954
-0.00011638
-0.000115802
-0.000115248
-0.000114817
-0.000114777
-0.000115171
-0.000119868
-0.000119418
-0.000118881
-0.000118388
-0.000117907
-0.000117395
-0.000116873
-0.000116344
-0.000115809
-0.000115272
-0.000114762
-0.000114365
-0.000114307
-0.000114608
-0.000118933
-0.000118592
-0.000118159
-0.000117734
-0.000117303
-0.000116838
-0.000116352
-0.000115851
-0.00011534
-0.000114829
-0.000114349
-0.000113976
-0.000113893
-0.000114105
-0.000118357
-0.000118104
-0.000117738
-0.000117332
-0.000116893
-0.000116417
-0.000115916
-0.000115401
-0.000114884
-0.000114381
-0.000113925
-0.000113586
-0.000113515
-0.000113682
-6.79434e-007
-6.80157e-007
-6.80255e-007
-6.80397e-007
-6.80489e-007
-6.80504e-007
-6.80471e-007
-6.80394e-007
-6.80276e-007
-6.80123e-007
-6.79948e-007
-6.7975e-007
-6.79505e-007
-6.79054e-007
-2.07288e-006
-2.07322e-006
-2.0728e-006
-2.07246e-006
-2.0721e-006
-2.0717e-006
-2.07123e-006
-2.0707e-006
-2.0701e-006
-2.06943e-006
-2.06874e-006
-2.06807e-006
-2.06746e-006
-2.06683e-006
-3.50341e-006
-3.50252e-006
-3.50125e-006
-3.50013e-006
-3.49909e-006
-3.49805e-006
-3.49696e-006
-3.49579e-006
-3.49451e-006
-3.49316e-006
-3.4918e-006
-3.49051e-006
-3.48944e-006
-3.48859e-006
-4.93203e-006
-4.93065e-006
-4.92868e-006
-4.92688e-006
-4.92518e-006
-4.92346e-006
-4.92166e-006
-4.91978e-006
-4.91779e-006
-4.91572e-006
-4.91368e-006
-4.91179e-006
-4.91023e-006
-4.90907e-006
-6.35822e-006
-6.3564e-006
-6.35376e-006
-6.35131e-006
-6.34901e-006
-6.3467e-006
-6.34431e-006
-6.3418e-006
-6.33915e-006
-6.33642e-006
-6.33376e-006
-6.33132e-006
-6.32935e-006
-6.32794e-006
-7.78209e-006
-7.77978e-006
-7.77643e-006
-7.77332e-006
-7.7704e-006
-7.76749e-006
-7.76451e-006
-7.76141e-006
-7.75816e-006
-7.75482e-006
-7.75157e-006
-7.7486e-006
-7.74619e-006
-7.74449e-006
-9.20431e-006
-9.20159e-006
-9.1976e-006
-9.19389e-006
-9.19039e-006
-9.18689e-006
-9.1833e-006
-9.17958e-006
-9.1757e-006
-9.17172e-006
-9.16785e-006
-9.16431e-006
-9.16142e-006
-9.15939e-006
-1.06241e-005
-1.06209e-005
-1.06163e-005
-1.0612e-005
-1.06079e-005
-1.06038e-005
-1.05996e-005
-1.05952e-005
-1.05907e-005
-1.05861e-005
-1.05816e-005
-1.05775e-005
-1.05741e-005
-1.05718e-005
-1.20409e-005
-1.20373e-005
-1.20319e-005
-1.2027e-005
-1.20223e-005
-1.20176e-005
-1.20128e-005
-1.20079e-005
-1.20028e-005
-1.19976e-005
-1.19925e-005
-1.19879e-005
-1.19841e-005
-1.19814e-005
-1.34545e-005
-1.34504e-005
-1.34444e-005
-1.34388e-005
-1.34335e-005
-1.34282e-005
-1.34228e-005
-1.34173e-005
-1.34116e-005
-1.34058e-005
-1.34002e-005
-1.3395e-005
-1.33907e-005
-1.33875e-005
-1.48647e-005
-1.48602e-005
-1.48535e-005
-1.48473e-005
-1.48414e-005
-1.48356e-005
-1.48296e-005
-1.48235e-005
-1.48172e-005
-1.48107e-005
-1.48045e-005
-1.47986e-005
-1.47936e-005
-1.47897e-005
-1.62711e-005
-1.62662e-005
-1.62588e-005
-1.6252e-005
-1.62455e-005
-1.62391e-005
-1.62326e-005
-1.62259e-005
-1.6219e-005
-1.6212e-005
-1.62051e-005
-1.61987e-005
-1.6193e-005
-1.61887e-005
-1.76732e-005
-1.76678e-005
-1.76597e-005
-1.76523e-005
-1.76452e-005
-1.76382e-005
-1.7631e-005
-1.76238e-005
-1.76164e-005
-1.76088e-005
-1.76015e-005
-1.75945e-005
-1.75883e-005
-1.75835e-005
-1.90706e-005
-1.90647e-005
-1.9056e-005
-1.90479e-005
-1.90402e-005
-1.90325e-005
-1.90247e-005
-1.90169e-005
-1.90089e-005
-1.90008e-005
-1.89929e-005
-1.89853e-005
-1.89782e-005
-1.89727e-005
-2.04631e-005
-2.04568e-005
-2.04474e-005
-2.04386e-005
-2.04303e-005
-2.0422e-005
-2.04136e-005
-2.04051e-005
-2.03965e-005
-2.03878e-005
-2.03791e-005
-2.03707e-005
-2.03628e-005
-2.03565e-005
-2.18506e-005
-2.18438e-005
-2.18337e-005
-2.18243e-005
-2.18154e-005
-2.18064e-005
-2.17975e-005
-2.17883e-005
-2.17791e-005
-2.17697e-005
-2.17605e-005
-2.17514e-005
-2.17426e-005
-2.17355e-005
-2.32325e-005
-2.32252e-005
-2.32144e-005
-2.32044e-005
-2.31948e-005
-2.31853e-005
-2.31757e-005
-2.3166e-005
-2.31562e-005
-2.31463e-005
-2.31365e-005
-2.31268e-005
-2.31172e-005
-2.31094e-005
-2.46083e-005
-2.46005e-005
-2.45891e-005
-2.45783e-005
-2.45681e-005
-2.4558e-005
-2.45478e-005
-2.45375e-005
-2.45271e-005
-2.45167e-005
-2.45063e-005
-2.4496e-005
-2.44855e-005
-2.44769e-005
-2.59779e-005
-2.59696e-005
-2.59575e-005
-2.5946e-005
-2.59352e-005
-2.59243e-005
-2.59135e-005
-2.59026e-005
-2.58916e-005
-2.58805e-005
-2.58695e-005
-2.58584e-005
-2.5847e-005
-2.58375e-005
-2.73412e-005
-2.73324e-005
-2.73194e-005
-2.73073e-005
-2.72957e-005
-2.72842e-005
-2.72726e-005
-2.7261e-005
-2.72493e-005
-2.72376e-005
-2.72258e-005
-2.72139e-005
-2.72015e-005
-2.71911e-005
-2.86979e-005
-2.86885e-005
-2.86748e-005
-2.86619e-005
-2.86496e-005
-2.86373e-005
-2.8625e-005
-2.86126e-005
-2.86002e-005
-2.85878e-005
-2.85753e-005
-2.85627e-005
-2.85493e-005
-2.85381e-005
-3.00478e-005
-3.00379e-005
-3.00233e-005
-3.00096e-005
-2.99966e-005
-2.99836e-005
-2.99705e-005
-2.99574e-005
-2.99443e-005
-2.99312e-005
-2.99181e-005
-2.99047e-005
-2.98905e-005
-2.98785e-005
-3.1391e-005
-3.13804e-005
-3.1365e-005
-3.13505e-005
-3.13366e-005
-3.13229e-005
-3.13091e-005
-3.12953e-005
-3.12815e-005
-3.12677e-005
-3.12539e-005
-3.12398e-005
-3.12248e-005
-3.12122e-005
-3.27273e-005
-3.27162e-005
-3.26998e-005
-3.26844e-005
-3.26698e-005
-3.26552e-005
-3.26406e-005
-3.26261e-005
-3.26116e-005
-3.25972e-005
-3.25827e-005
-3.25679e-005
-3.25522e-005
-3.2539e-005
-3.40569e-005
-3.40451e-005
-3.40278e-005
-3.40115e-005
-3.3996e-005
-3.39806e-005
-3.39653e-005
-3.395e-005
-3.39348e-005
-3.39196e-005
-3.39045e-005
-3.3889e-005
-3.38725e-005
-3.38587e-005
-3.53799e-005
-3.53674e-005
-3.53492e-005
-3.5332e-005
-3.53156e-005
-3.52993e-005
-3.52832e-005
-3.52671e-005
-3.52511e-005
-3.52351e-005
-3.52192e-005
-3.5203e-005
-3.51858e-005
-3.51714e-005
-3.66965e-005
-3.66834e-005
-3.66641e-005
-3.66459e-005
-3.66286e-005
-3.66115e-005
-3.65944e-005
-3.65775e-005
-3.65606e-005
-3.65439e-005
-3.65272e-005
-3.65101e-005
-3.64922e-005
-3.64771e-005
-3.80069e-005
-3.79931e-005
-3.79727e-005
-3.79536e-005
-3.79353e-005
-3.79172e-005
-3.78992e-005
-3.78813e-005
-3.78636e-005
-3.78459e-005
-3.78284e-005
-3.78105e-005
-3.77918e-005
-3.77762e-005
-3.93112e-005
-3.92966e-005
-3.92752e-005
-3.9255e-005
-3.92357e-005
-3.92167e-005
-3.91977e-005
-3.91788e-005
-3.91601e-005
-3.91415e-005
-3.9123e-005
-3.91043e-005
-3.90848e-005
-3.90684e-005
-4.06097e-005
-4.05943e-005
-4.05717e-005
-4.05504e-005
-4.05301e-005
-4.051e-005
-4.049e-005
-4.04701e-005
-4.04504e-005
-4.04309e-005
-4.04115e-005
-4.0392e-005
-4.03717e-005
-4.03547e-005
-4.19027e-005
-4.18865e-005
-4.18627e-005
-4.18402e-005
-4.18189e-005
-4.17977e-005
-4.17766e-005
-4.17557e-005
-4.1735e-005
-4.17145e-005
-4.16942e-005
-4.16739e-005
-4.16528e-005
-4.16352e-005
-4.31909e-005
-4.31738e-005
-4.31487e-005
-4.31251e-005
-4.31026e-005
-4.30803e-005
-4.30581e-005
-4.30362e-005
-4.30144e-005
-4.29929e-005
-4.29716e-005
-4.29504e-005
-4.29285e-005
-4.29101e-005
-4.44749e-005
-4.44569e-005
-4.44305e-005
-4.44057e-005
-4.43821e-005
-4.43586e-005
-4.43353e-005
-4.43121e-005
-4.42892e-005
-4.42666e-005
-4.42443e-005
-4.42221e-005
-4.41991e-005
-4.41801e-005
-4.57553e-005
-4.57364e-005
-4.57086e-005
-4.56826e-005
-4.56577e-005
-4.5633e-005
-4.56084e-005
-4.55841e-005
-4.556e-005
-4.55362e-005
-4.55128e-005
-4.54893e-005
-4.54653e-005
-4.54455e-005
-4.70329e-005
-4.7013e-005
-4.69838e-005
-4.69564e-005
-4.69303e-005
-4.69042e-005
-4.68784e-005
-4.68527e-005
-4.68273e-005
-4.68023e-005
-4.67776e-005
-4.6753e-005
-4.67277e-005
-4.67069e-005
-4.83079e-005
-4.82869e-005
-4.82563e-005
-4.82275e-005
-4.81999e-005
-4.81726e-005
-4.81453e-005
-4.81183e-005
-4.80916e-005
-4.80652e-005
-4.80392e-005
-4.80133e-005
-4.79868e-005
-4.79649e-005
-4.95816e-005
-4.95595e-005
-4.95273e-005
-4.94969e-005
-4.94679e-005
-4.9439e-005
-4.94103e-005
-4.93818e-005
-4.93536e-005
-4.93257e-005
-4.92984e-005
-4.92711e-005
-4.92431e-005
-4.92202e-005
-5.08545e-005
-5.08312e-005
-5.07972e-005
-5.07653e-005
-5.07347e-005
-5.07042e-005
-5.06739e-005
-5.06438e-005
-5.0614e-005
-5.05847e-005
-5.05558e-005
-5.0527e-005
-5.04976e-005
-5.04735e-005
-5.2128e-005
-5.21033e-005
-5.20675e-005
-5.20337e-005
-5.20014e-005
-5.19692e-005
-5.19371e-005
-5.19053e-005
-5.18739e-005
-5.18428e-005
-5.18123e-005
-5.1782e-005
-5.1751e-005
-5.17257e-005
-5.3403e-005
-5.33768e-005
-5.33389e-005
-5.33033e-005
-5.32691e-005
-5.3235e-005
-5.3201e-005
-5.31673e-005
-5.31339e-005
-5.31011e-005
-5.30689e-005
-5.3037e-005
-5.30045e-005
-5.2978e-005
-5.4681e-005
-5.46531e-005
-5.46129e-005
-5.45752e-005
-5.45389e-005
-5.45026e-005
-5.44665e-005
-5.44308e-005
-5.43955e-005
-5.43607e-005
-5.43268e-005
-5.42931e-005
-5.42591e-005
-5.42315e-005
-5.59635e-005
-5.59336e-005
-5.5891e-005
-5.58508e-005
-5.58123e-005
-5.57737e-005
-5.57353e-005
-5.56973e-005
-5.56598e-005
-5.5623e-005
-5.55871e-005
-5.55518e-005
-5.55162e-005
-5.54875e-005
-5.72521e-005
-5.722e-005
-5.71746e-005
-5.71318e-005
-5.70907e-005
-5.70495e-005
-5.70085e-005
-5.6968e-005
-5.69282e-005
-5.68892e-005
-5.68513e-005
-5.68142e-005
-5.67772e-005
-5.67476e-005
-5.85487e-005
-5.85141e-005
-5.84655e-005
-5.84198e-005
-5.83757e-005
-5.83316e-005
-5.82878e-005
-5.82445e-005
-5.82021e-005
-5.81606e-005
-5.81206e-005
-5.80819e-005
-5.80436e-005
-5.80134e-005
-5.98552e-005
-5.98177e-005
-5.97654e-005
-5.97164e-005
-5.96692e-005
-5.96218e-005
-5.95747e-005
-5.95284e-005
-5.94831e-005
-5.94391e-005
-5.93969e-005
-5.93565e-005
-5.93173e-005
-5.92866e-005
-6.11741e-005
-6.11332e-005
-6.10769e-005
-6.10241e-005
-6.09731e-005
-6.0922e-005
-6.08714e-005
-6.08216e-005
-6.07731e-005
-6.07263e-005
-6.06818e-005
-6.06398e-005
-6.05999e-005
-6.05692e-005
-6.25079e-005
-6.24632e-005
-6.24021e-005
-6.23451e-005
-6.229e-005
-6.22347e-005
-6.21799e-005
-6.21263e-005
-6.20742e-005
-6.20244e-005
-6.19774e-005
-6.19339e-005
-6.18936e-005
-6.18633e-005
-6.38593e-005
-6.38101e-005
-6.37437e-005
-6.36818e-005
-6.3622e-005
-6.35619e-005
-6.35025e-005
-6.34446e-005
-6.33886e-005
-6.33354e-005
-6.32859e-005
-6.32409e-005
-6.32005e-005
-6.31711e-005
-6.52313e-005
-6.5177e-005
-6.51045e-005
-6.5037e-005
-6.49718e-005
-6.49063e-005
-6.48417e-005
-6.4779e-005
-6.47187e-005
-6.46618e-005
-6.46096e-005
-6.45631e-005
-6.4523e-005
-6.4495e-005
-6.66275e-005
-6.65672e-005
-6.64876e-005
-6.64139e-005
-6.63425e-005
-6.62709e-005
-6.62004e-005
-6.61321e-005
-6.60669e-005
-6.60059e-005
-6.59508e-005
-6.5903e-005
-6.58635e-005
-6.58373e-005
-6.80512e-005
-6.7984e-005
-6.78963e-005
-6.78154e-005
-6.77371e-005
-6.76584e-005
-6.75812e-005
-6.75068e-005
-6.74361e-005
-6.73705e-005
-6.73121e-005
-6.72629e-005
-6.72245e-005
-6.72008e-005
-6.95059e-005
-6.94307e-005
-6.93338e-005
-6.92447e-005
-6.91584e-005
-6.90718e-005
-6.89871e-005
-6.89056e-005
-6.88288e-005
-6.87582e-005
-6.86962e-005