/*--------------------------------*- C++ -*----------------------------------*\
| =========                 |                                                 |
| \\      /  F ield         | OpenFOAM: The Open Source CFD Toolbox           |
|  \\    /   O peration     | Version:  5.x                                   |
|   \\  /    A nd           | Web:      www.OpenFOAM.org                      |
|    \\/     M anipulation  |                                                 |
\*---------------------------------------------------------------------------*/
/*   Windows 32 and 64 bit porting by blueCAPE: http://www.bluecape.com.pt   *\
|  Based on Windows porting (2.0.x v4) by Symscape: http://www.symscape.com   |
\*---------------------------------------------------------------------------*/
FoamFile
{
    version     2.0;
    format      ascii;
    class       volScalarField;
    location    "1.5";
    object      p;
}
// * * * * * * * * * * * * * * * * * * * * * * * * * * * * * * * * * * * * * //

dimensions      [0 2 -2 0 0 0 0];

internalField   nonuniform List<scalar> 
141075
(
-1.24414e-006
-1.24602e-006
-1.24737e-006
-1.24861e-006
-1.24961e-006
-1.25047e-006
-1.25124e-006
-1.25194e-006
-1.25258e-006
-1.25317e-006
-1.25372e-006
-1.25422e-006
-1.25465e-006
-1.25474e-006
-3.79978e-006
-3.80257e-006
-3.80533e-006
-3.80764e-006
-3.80948e-006
-3.81102e-006
-3.81232e-006
-3.81339e-006
-3.81425e-006
-3.81492e-006
-3.81548e-006
-3.81607e-006
-3.81694e-006
-3.81785e-006
-6.42392e-006
-6.42484e-006
-6.42631e-006
-6.42784e-006
-6.42923e-006
-6.43039e-006
-6.43128e-006
-6.43186e-006
-6.43217e-006
-6.4323e-006
-6.43247e-006
-6.43297e-006
-6.43446e-006
-6.43671e-006
-9.05706e-006
-9.05825e-006
-9.05986e-006
-9.06137e-006
-9.06265e-006
-9.0637e-006
-9.06446e-006
-9.06487e-006
-9.06496e-006
-9.06485e-006
-9.06484e-006
-9.06536e-006
-9.06739e-006
-9.0706e-006
-1.16984e-005
-1.16999e-005
-1.17018e-005
-1.17036e-005
-1.1705e-005
-1.17062e-005
-1.1707e-005
-1.17074e-005
-1.17074e-005
-1.17072e-005
-1.17072e-005
-1.17078e-005
-1.17105e-005
-1.17146e-005
-1.43514e-005
-1.43532e-005
-1.43557e-005
-1.43579e-005
-1.43596e-005
-1.4361e-005
-1.43619e-005
-1.43625e-005
-1.43625e-005
-1.43623e-005
-1.43622e-005
-1.43631e-005
-1.43663e-005
-1.43713e-005
-1.70179e-005
-1.70201e-005
-1.70231e-005
-1.70257e-005
-1.70279e-005
-1.70296e-005
-1.70308e-005
-1.70314e-005
-1.70315e-005
-1.70313e-005
-1.70313e-005
-1.70323e-005
-1.70362e-005
-1.70422e-005
-1.97006e-005
-1.97031e-005
-1.97066e-005
-1.97098e-005
-1.97124e-005
-1.97145e-005
-1.97161e-005
-1.9717e-005
-1.97173e-005
-1.97172e-005
-1.97174e-005
-1.97188e-005
-1.97234e-005
-1.97305e-005
-2.2402e-005
-2.2405e-005
-2.2409e-005
-2.24127e-005
-2.24158e-005
-2.24184e-005
-2.24204e-005
-2.24216e-005
-2.24223e-005
-2.24225e-005
-2.2423e-005
-2.24248e-005
-2.24303e-005
-2.24384e-005
-2.51239e-005
-2.51274e-005
-2.51322e-005
-2.51365e-005
-2.51401e-005
-2.51432e-005
-2.51457e-005
-2.51475e-005
-2.51486e-005
-2.51493e-005
-2.51502e-005
-2.51527e-005
-2.51589e-005
-2.5168e-005
-2.78678e-005
-2.78719e-005
-2.78775e-005
-2.78826e-005
-2.78869e-005
-2.78908e-005
-2.7894e-005
-2.78964e-005
-2.78982e-005
-2.78995e-005
-2.79011e-005
-2.79042e-005
-2.79112e-005
-2.79211e-005
-3.06353e-005
-3.064e-005
-3.06465e-005
-3.06525e-005
-3.06578e-005
-3.06625e-005
-3.06665e-005
-3.06698e-005
-3.06724e-005
-3.06746e-005
-3.0677e-005
-3.06809e-005
-3.06888e-005
-3.06994e-005
-3.34275e-005
-3.34329e-005
-3.34405e-005
-3.34475e-005
-3.34537e-005
-3.34593e-005
-3.34643e-005
-3.34686e-005
-3.34722e-005
-3.34754e-005
-3.34789e-005
-3.34838e-005
-3.34925e-005
-3.35037e-005
-3.62451e-005
-3.62513e-005
-3.62602e-005
-3.62683e-005
-3.62756e-005
-3.62822e-005
-3.62883e-005
-3.62937e-005
-3.62985e-005
-3.63029e-005
-3.63076e-005
-3.63136e-005
-3.63232e-005
-3.63349e-005
-3.90887e-005
-3.90957e-005
-3.91059e-005
-3.91154e-005
-3.91239e-005
-3.91318e-005
-3.91391e-005
-3.91458e-005
-3.91519e-005
-3.91576e-005
-3.91636e-005
-3.91709e-005
-3.91813e-005
-3.91934e-005
-4.19584e-005
-4.19664e-005
-4.19781e-005
-4.19889e-005
-4.19987e-005
-4.2008e-005
-4.20167e-005
-4.20248e-005
-4.20324e-005
-4.20398e-005
-4.20473e-005
-4.20559e-005
-4.20672e-005
-4.20797e-005
-4.48541e-005
-4.48631e-005
-4.48764e-005
-4.48888e-005
-4.49e-005
-4.49107e-005
-4.4921e-005
-4.49307e-005
-4.494e-005
-4.49491e-005
-4.49583e-005
-4.49685e-005
-4.49808e-005
-4.49937e-005
-4.77751e-005
-4.77852e-005
-4.78002e-005
-4.78142e-005
-4.78271e-005
-4.78394e-005
-4.78513e-005
-4.78628e-005
-4.78739e-005
-4.78849e-005
-4.78961e-005
-4.79079e-005
-4.79213e-005
-4.79347e-005
-5.0721e-005
-5.07322e-005
-5.07492e-005
-5.07649e-005
-5.07794e-005
-5.07935e-005
-5.08072e-005
-5.08205e-005
-5.08336e-005
-5.08466e-005
-5.08597e-005
-5.08733e-005
-5.0888e-005
-5.09017e-005
-5.3691e-005
-5.37034e-005
-5.37223e-005
-5.37399e-005
-5.37562e-005
-5.37721e-005
-5.37876e-005
-5.38029e-005
-5.3818e-005
-5.3833e-005
-5.38481e-005
-5.38636e-005
-5.38796e-005
-5.38939e-005
-5.66842e-005
-5.66978e-005
-5.67187e-005
-5.67382e-005
-5.67564e-005
-5.67741e-005
-5.67915e-005
-5.68088e-005
-5.6826e-005
-5.68431e-005
-5.68603e-005
-5.68776e-005
-5.6895e-005
-5.69101e-005
-5.96994e-005
-5.97143e-005
-5.97373e-005
-5.97588e-005
-5.97788e-005
-5.97984e-005
-5.98178e-005
-5.98371e-005
-5.98564e-005
-5.98758e-005
-5.98951e-005
-5.99144e-005
-5.99334e-005
-5.99496e-005
-6.27353e-005
-6.27515e-005
-6.27767e-005
-6.28001e-005
-6.28222e-005
-6.28438e-005
-6.28652e-005
-6.28866e-005
-6.29081e-005
-6.29297e-005
-6.29513e-005
-6.29728e-005
-6.29937e-005
-6.30112e-005
-6.57907e-005
-6.58083e-005
-6.58356e-005
-6.58611e-005
-6.58851e-005
-6.59088e-005
-6.59323e-005
-6.59559e-005
-6.59797e-005
-6.60036e-005
-6.60274e-005
-6.60511e-005
-6.60742e-005
-6.60937e-005
-6.88648e-005
-6.88837e-005
-6.8913e-005
-6.89406e-005
-6.89666e-005
-6.89923e-005
-6.90179e-005
-6.90437e-005
-6.90696e-005
-6.90958e-005
-6.91219e-005
-6.91479e-005
-6.91733e-005
-6.91951e-005
-7.19563e-005
-7.19764e-005
-7.20079e-005
-7.20376e-005
-7.20657e-005
-7.20934e-005
-7.21212e-005
-7.21492e-005
-7.21774e-005
-7.22058e-005
-7.22342e-005
-7.22625e-005
-7.22905e-005
-7.23146e-005
-7.50646e-005
-7.5086e-005
-7.51197e-005
-7.51515e-005
-7.51817e-005
-7.52114e-005
-7.52413e-005
-7.52714e-005
-7.53017e-005
-7.53323e-005
-7.53628e-005
-7.53934e-005
-7.5424e-005
-7.54507e-005
-7.81891e-005
-7.82117e-005
-7.82475e-005
-7.82814e-005
-7.83137e-005
-7.83455e-005
-7.83775e-005
-7.84096e-005
-7.8442e-005
-7.84746e-005
-7.85071e-005
-7.85399e-005
-7.85731e-005
-7.86024e-005
-8.13292e-005
-8.1353e-005
-8.1391e-005
-8.1427e-005
-8.14612e-005
-8.1495e-005
-8.15289e-005
-8.1563e-005
-8.15974e-005
-8.16318e-005
-8.16663e-005
-8.17012e-005
-8.1737e-005
-8.1769e-005
-8.4484e-005
-8.45089e-005
-8.4549e-005
-8.4587e-005
-8.46232e-005
-8.46589e-005
-8.46947e-005
-8.47306e-005
-8.47667e-005
-8.48029e-005
-8.48392e-005
-8.48761e-005
-8.49146e-005
-8.49494e-005
-8.76531e-005
-8.76789e-005
-8.77209e-005
-8.77609e-005
-8.77989e-005
-8.78364e-005
-8.78739e-005
-8.79116e-005
-8.79493e-005
-8.79872e-005
-8.80251e-005
-8.80639e-005
-8.81051e-005
-8.8143e-005
-9.08367e-005
-9.08632e-005
-9.0907e-005
-9.09487e-005
-9.09885e-005
-9.10275e-005
-9.10666e-005
-9.11058e-005
-9.1145e-005
-9.11842e-005
-9.12236e-005
-9.12643e-005
-9.13082e-005
-9.13494e-005
-9.40352e-005
-9.40622e-005
-9.41075e-005
-9.41509e-005
-9.41921e-005
-9.42326e-005
-9.4273e-005
-9.43135e-005
-9.43539e-005
-9.43943e-005
-9.44349e-005
-9.44771e-005
-9.45236e-005
-9.45683e-005
-9.72496e-005
-9.72768e-005
-9.73235e-005
-9.73681e-005
-9.74106e-005
-9.74521e-005
-9.74936e-005
-9.75351e-005
-9.75764e-005
-9.76176e-005
-9.76591e-005
-9.77025e-005
-9.77513e-005
-9.77995e-005
-0.000100481
-0.000100508
-0.000100555
-0.000100601
-0.000100644
-0.000100687
-0.000100729
-0.000100771
-0.000100813
-0.000100854
-0.000100896
-0.00010094
-0.000100991
-0.000101043
-0.000103729
-0.000103755
-0.000103804
-0.00010385
-0.000103894
-0.000103937
-0.000103979
-0.000104021
-0.000104063
-0.000104105
-0.000104146
-0.000104191
-0.000104244
-0.000104299
-0.000106996
-0.000107021
-0.00010707
-0.000107116
-0.00010716
-0.000107203
-0.000107245
-0.000107286
-0.000107328
-0.000107369
-0.00010741
-0.000107454
-0.000107509
-0.000107567
-0.000110284
-0.000110308
-0.000110355
-0.000110401
-0.000110445
-0.000110486
-0.000110528
-0.000110568
-0.000110608
-0.000110648
-0.000110688
-0.000110731
-0.000110787
-0.000110849
-0.000113595
-0.000113616
-0.000113662
-0.000113707
-0.00011375
-0.000113789
-0.000113829
-0.000113867
-0.000113906
-0.000113943
-0.000113981
-0.000114023
-0.000114079
-0.000114144
-0.000116931
-0.000116948
-0.000116992
-0.000117035
-0.000117075
-0.000117113
-0.000117149
-0.000117185
-0.000117221
-0.000117255
-0.00011729
-0.000117329
-0.000117385
-0.000117455
-0.000120295
-0.000120307
-0.000120347
-0.000120387
-0.000120425
-0.000120458
-0.000120491
-0.000120523
-0.000120555
-0.000120585
-0.000120615
-0.000120652
-0.000120708
-0.000120781
-0.00012369
-0.000123696
-0.000123731
-0.000123767
-0.0001238
-0.000123829
-0.000123857
-0.000123884
-0.00012391
-0.000123935
-0.00012396
-0.000123993
-0.000124048
-0.000124126
-0.000127121
-0.000127119
-0.000127147
-0.000127177
-0.000127205
-0.000127228
-0.00012725
-0.000127271
-0.00012729
-0.000127308
-0.000127327
-0.000127354
-0.000127409
-0.000127491
-0.000130591
-0.00013058
-0.000130599
-0.000130623
-0.000130644
-0.000130659
-0.000130673
-0.000130686
-0.000130698
-0.000130707
-0.000130718
-0.000130738
-0.000130791
-0.000130879
-0.000134104
-0.000134082
-0.000134092
-0.000134106
-0.000134119
-0.000134125
-0.000134129
-0.000134133
-0.000134134
-0.000134134
-0.000134135
-0.000134148
-0.000134199
-0.000134293
-0.000137667
-0.000137632
-0.000137628
-0.000137632
-0.000137635
-0.000137629
-0.000137622
-0.000137614
-0.000137604
-0.000137593
-0.000137582
-0.000137585
-0.000137633
-0.000137735
-0.000141285
-0.000141233
-0.000141214
-0.000141205
-0.000141196
-0.000141177
-0.000141156
-0.000141135
-0.000141111
-0.000141086
-0.000141062
-0.000141054
-0.000141099
-0.000141208
-0.000144962
-0.000144891
-0.000144855
-0.000144831
-0.000144806
-0.000144772
-0.000144735
-0.000144698
-0.000144659
-0.000144617
-0.000144578
-0.000144557
-0.000144599
-0.000144717
-0.000148704
-0.000148612
-0.000148554
-0.000148512
-0.000148471
-0.000148418
-0.000148364
-0.000148308
-0.000148251
-0.000148191
-0.000148134
-0.000148098
-0.000148136
-0.000148265
-0.000152519
-0.000152401
-0.000152319
-0.000152256
-0.000152196
-0.000152121
-0.000152046
-0.000151969
-0.000151891
-0.00015181
-0.000151733
-0.00015168
-0.000151713
-0.000151854
-0.000156411
-0.000156265
-0.000156154
-0.000156067
-0.000155984
-0.000155886
-0.000155786
-0.000155686
-0.000155584
-0.000155479
-0.000155379
-0.000155307
-0.000155334
-0.000155489
-0.000160386
-0.000160207
-0.000160064
-0.000159951
-0.000159842
-0.000159716
-0.000159589
-0.000159462
-0.000159333
-0.000159201
-0.000159075
-0.000158982
-0.000159003
-0.000159171
-0.00016445
-0.000164234
-0.000164054
-0.00016391
-0.000163773
-0.000163616
-0.000163459
-0.000163301
-0.000163142
-0.00016298
-0.000162825
-0.000162707
-0.00016272
-0.000162905
-0.000168607
-0.000168349
-0.000168128
-0.000167949
-0.00016778
-0.000167589
-0.000167397
-0.000167206
-0.000167013
-0.000166818
-0.00016663
-0.000166486
-0.00016649
-0.000166693
-0.00017286
-0.000172556
-0.000172289
-0.000172071
-0.000171866
-0.000171636
-0.000171407
-0.000171179
-0.000170949
-0.000170716
-0.000170492
-0.000170318
-0.000170313
-0.000170535
-0.000177211
-0.000176856
-0.000176538
-0.000176277
-0.000176032
-0.000175761
-0.00017549
-0.000175221
-0.00017495
-0.000174676
-0.000174413
-0.000174206
-0.00017419
-0.000174433
-0.000181661
-0.000181249
-0.000180874
-0.000180567
-0.000180278
-0.00017996
-0.000179644
-0.00017933
-0.000179015
-0.000178697
-0.000178391
-0.000178148
-0.00017812
-0.000178387
-0.000186208
-0.000185734
-0.000185296
-0.000184938
-0.000184602
-0.000184234
-0.000183868
-0.000183506
-0.000183143
-0.000182777
-0.000182425
-0.000182144
-0.000182103
-0.000182395
-0.000190849
-0.000190307
-0.000189802
-0.000189387
-0.000189
-0.000188577
-0.000188158
-0.000187744
-0.00018733
-0.000186912
-0.00018651
-0.000186188
-0.000186134
-0.000186454
-0.00019558
-0.000194964
-0.000194385
-0.000193911
-0.000193468
-0.000192986
-0.000192509
-0.000192039
-0.00019157
-0.000191097
-0.000190642
-0.000190276
-0.000190209
-0.000190559
-0.000200393
-0.000199698
-0.00019904
-0.0001985
-0.000197998
-0.000197453
-0.000196915
-0.000196385
-0.000195857
-0.000195326
-0.000194815
-0.000194402
-0.000194321
-0.000194705
-0.000205278
-0.000204498
-0.000203756
-0.000203147
-0.000202581
-0.00020197
-0.000201367
-0.000200774
-0.000200184
-0.000199591
-0.000199021
-0.000198559
-0.000198465
-0.000198885
-0.000210226
-0.000209355
-0.000208523
-0.00020784
-0.000207208
-0.000206526
-0.000205855
-0.000205196
-0.00020454
-0.000203884
-0.000203251
-0.000202739
-0.000202631
-0.00020309
-0.000215223
-0.000214257
-0.000213329
-0.000212569
-0.000211866
-0.00021111
-0.000210367
-0.000209639
-0.000208916
-0.000208192
-0.000207496
-0.000206931
-0.000206809
-0.000207311
-0.000220253
-0.000219186
-0.000218159
-0.000217318
-0.000216542
-0.000215709
-0.000214891
-0.000214091
-0.000213298
-0.000212505
-0.000211742
-0.000211124
-0.000210989
-0.000211537
-0.000225296
-0.000224125
-0.000222994
-0.000222069
-0.000221217
-0.000220305
-0.00021941
-0.000218537
-0.000217671
-0.000216807
-0.000215978
-0.000215305
-0.000215158
-0.000215754
-0.000230333
-0.000229054
-0.000227815
-0.000226803
-0.000225874
-0.00022488
-0.000223907
-0.000222959
-0.00022202
-0.000221085
-0.000220187
-0.000219459
-0.000219301
-0.000219949
-0.00023534
-0.000233951
-0.000232602
-0.000231501
-0.000230492
-0.000229415
-0.000228363
-0.000227339
-0.000226327
-0.000225319
-0.000224353
-0.000223571
-0.000223404
-0.000224107
-0.000240292
-0.00023879
-0.000237329
-0.000236139
-0.00023505
-0.00023389
-0.000232758
-0.000231658
-0.000230573
-0.000229493
-0.000228459
-0.000227624
-0.000227449
-0.000228209
-0.000245161
-0.000243545
-0.000241972
-0.000240693
-0.000239523
-0.00023828
-0.000237069
-0.000235894
-0.000234736
-0.000233586
-0.000232486
-0.000231599
-0.000231419
-0.000232238
-0.000249917
-0.000248188
-0.000246503
-0.000245134
-0.000243886
-0.000242561
-0.000241272
-0.000240023
-0.000238796
-0.000237578
-0.000236414
-0.000235477
-0.000235294
-0.000236174
-0.000254529
-0.000252689
-0.000250893
-0.000249437
-0.000248112
-0.000246706
-0.000245341
-0.000244022
-0.000242728
-0.000241445
-0.00024022
-0.000239237
-0.000239055
-0.000239996
-0.000258962
-0.000257014
-0.000255111
-0.00025357
-0.000252171
-0.000250688
-0.000249251
-0.000247865
-0.000246507
-0.000245163
-0.000243882
-0.000242857
-0.000242677
-0.00024368
-0.000263182
-0.000261129
-0.000259123
-0.000257502
-0.000256033
-0.000254478
-0.000252973
-0.000251524
-0.000250108
-0.000248708
-0.000247376
-0.000246313
-0.000246139
-0.000247203
-0.000267153
-0.000265002
-0.000262899
-0.000261203
-0.000259668
-0.000258045
-0.000256479
-0.000254973
-0.000253503
-0.000252054
-0.000250676
-0.000249582
-0.000249416
-0.00025054
-0.000270838
-0.000268596
-0.000266405
-0.00026464
-0.000263045
-0.000261362
-0.000259739
-0.000258182
-0.000256666
-0.000255174
-0.000253758
-0.000252638
-0.000252484
-0.000253666
-0.000274204
-0.00027188
-0.000269609
-0.000267782
-0.000266135
-0.000264398
-0.000262727
-0.000261127
-0.000259572
-0.000258043
-0.000256596
-0.000255457
-0.000255319
-0.000256556
-0.000277218
-0.000274823
-0.000272483
-0.000270604
-0.000268913
-0.000267131
-0.000265419
-0.000263783
-0.000262197
-0.000260641
-0.00025917
-0.000258018
-0.000257899
-0.000259188
-0.000279856
-0.000277402
-0.000275005
-0.000273084
-0.000271357
-0.00026954
-0.000267796
-0.000266133
-0.000264524
-0.000262949
-0.000261464
-0.000260306
-0.000260208
-0.000261545
-0.0002821
-0.000279602
-0.000277161
-0.000275209
-0.000273457
-0.000271613
-0.000269847
-0.000268167
-0.000266545
-0.000264959
-0.000263468
-0.000262312
-0.000262239
-0.000263618
-0.000283937
-0.000281409
-0.000278941
-0.000276969
-0.000275202
-0.000273344
-0.000271568
-0.000269881
-0.000268255
-0.00026667
-0.000265182
-0.000264038
-0.000263991
-0.000265407
-0.000285356
-0.000282815
-0.000280336
-0.000278359
-0.00027659
-0.00027473
-0.000272955
-0.000271274
-0.000269657
-0.000268085
-0.000266613
-0.000265489
-0.000265474
-0.00026692
-0.000286349
-0.000283813
-0.000281342
-0.000279375
-0.000277617
-0.00027577
-0.000274011
-0.000272348
-0.000270754
-0.000269208
-0.000267765
-0.000266674
-0.000266695
-0.000268166
-0.000286915
-0.000284404
-0.000281959
-0.000280017
-0.000278285
-0.000276467
-0.000274737
-0.000273107
-0.000271549
-0.000270043
-0.000268642
-0.000267594
-0.000267654
-0.000269142
-0.000287065
-0.000284599
-0.0002822
-0.000280298
-0.000278607
-0.00027683
-0.000275144
-0.000273559
-0.000272049
-0.000270593
-0.000269244
-0.000268247
-0.000268347
-0.000269842
-0.00028681
-0.000284409
-0.000282077
-0.00028023
-0.000278591
-0.00027687
-0.000275239
-0.000273711
-0.000272259
-0.000270862
-0.000269573
-0.000268632
-0.00026877
-0.000270259
-0.000286159
-0.000283845
-0.0002816
-0.000279826
-0.00027825
-0.000276597
-0.000275033
-0.000273571
-0.000272186
-0.000270858
-0.000269636
-0.000268754
-0.000268927
-0.000270399
-0.000285124
-0.000282916
-0.000280781
-0.000279095
-0.0002776
-0.000276028
-0.000274542
-0.000273155
-0.000271844
-0.000270591
-0.000269443
-0.000268626
-0.000268831
-0.000270272
-0.000283731
-0.00028165
-0.000279642
-0.00027806
-0.000276658
-0.000275181
-0.000273786
-0.000272485
-0.000271256
-0.000270084
-0.000269014
-0.000268263
-0.000268495
-0.000269893
-0.000282024
-0.00028009
-0.000278228
-0.000276761
-0.00027546
-0.000274089
-0.000272793
-0.000271585
-0.000270447
-0.000269362
-0.000268374
-0.000267692
-0.000267944
-0.000269281
-0.00028004
-0.000278272
-0.000276577
-0.000275239
-0.000274049
-0.00027279
-0.0002716
-0.000270492
-0.000269448
-0.000268455
-0.000267553
-0.000266941
-0.000267205
-0.000268468
-0.000277826
-0.000276241
-0.00027473
-0.000273536
-0.000272469
-0.000271335
-0.000270258
-0.000269253
-0.000268306
-0.000267404
-0.000266587
-0.000266039
-0.000266306
-0.000267475
-0.000275444
-0.000274058
-0.000272745
-0.000271705
-0.00027077
-0.000269768
-0.000268814
-0.000267918
-0.00026707
-0.000266259
-0.000265522
-0.000265031
-0.000265283
-0.00026634
-0.000272978
-0.000271803
-0.000270699
-0.000269818
-0.000269018
-0.000268153
-0.000267323
-0.000266537
-0.000265787
-0.000265066
-0.000264408
-0.000263968
-0.000264198
-0.000265127
-0.00027052
-0.000269566
-0.000268677
-0.000267956
-0.000267288
-0.000266557
-0.000265846
-0.000265166
-0.00026451
-0.000263874
-0.000263292
-0.000262905
-0.000263108
-0.000263903
-0.000268183
-0.000267452
-0.000266779
-0.000266213
-0.00026567
-0.000265063
-0.000264461
-0.000263875
-0.000263302
-0.000262743
-0.000262231
-0.000261893
-0.000262064
-0.000262717
-0.000266086
-0.000265571
-0.000265099
-0.000264674
-0.00026424
-0.00026374
-0.000263227
-0.000262713
-0.000262202
-0.000261703
-0.000261249
-0.000260953
-0.000261093
-0.000261612
-0.000264469
-0.000264139
-0.000263822
-0.000263495
-0.000263135
-0.00026271
-0.000262256
-0.000261785
-0.000261307
-0.000260839
-0.000260419
-0.000260148
-0.000260257
-0.000260666
-0.00026342
-0.000263216
-0.000262964
-0.000262646
-0.000262267
-0.000261832
-0.000261364
-0.00026088
-0.000260399
-0.000259944
-0.000259558
-0.000259339
-0.000259487
-0.000259879
-1.24468e-006
-1.24677e-006
-1.24841e-006
-1.24974e-006
-1.25078e-006
-1.25164e-006
-1.2524e-006
-1.25309e-006
-1.25371e-006
-1.25428e-006
-1.25481e-006
-1.25527e-006
-1.25558e-006
-1.25546e-006
-3.80222e-006
-3.8051e-006
-3.80788e-006
-3.81026e-006
-3.81223e-006
-3.81389e-006
-3.81527e-006
-3.81644e-006
-3.8174e-006
-3.81818e-006
-3.81886e-006
-3.81952e-006
-3.82025e-006
-3.82068e-006
-6.43025e-006
-6.43112e-006
-6.43252e-006
-6.43398e-006
-6.43534e-006
-6.43657e-006
-6.43758e-006
-6.43835e-006
-6.43886e-006
-6.43923e-006
-6.43963e-006
-6.44031e-006
-6.4416e-006
-6.44308e-006
-9.0666e-006
-9.06768e-006
-9.06916e-006
-9.07055e-006
-9.07176e-006
-9.07281e-006
-9.07367e-006
-9.07426e-006
-9.07463e-006
-9.07487e-006
-9.07525e-006
-9.07607e-006
-9.07787e-006
-9.08003e-006
-1.17108e-005
-1.17121e-005
-1.17139e-005
-1.17155e-005
-1.17169e-005
-1.1718e-005
-1.17189e-005
-1.17196e-005
-1.172e-005
-1.17202e-005
-1.17207e-005
-1.17218e-005
-1.17241e-005
-1.17269e-005
-1.43667e-005
-1.43683e-005
-1.43705e-005
-1.43725e-005
-1.43742e-005
-1.43756e-005
-1.43768e-005
-1.43775e-005
-1.4378e-005
-1.43784e-005
-1.4379e-005
-1.43803e-005
-1.43832e-005
-1.43867e-005
-1.70363e-005
-1.70382e-005
-1.70408e-005
-1.70432e-005
-1.70453e-005
-1.7047e-005
-1.70484e-005
-1.70494e-005
-1.705e-005
-1.70505e-005
-1.70513e-005
-1.70529e-005
-1.70564e-005
-1.70606e-005
-1.97222e-005
-1.97244e-005
-1.97275e-005
-1.97304e-005
-1.97328e-005
-1.97348e-005
-1.97366e-005
-1.97379e-005
-1.97388e-005
-1.97395e-005
-1.97406e-005
-1.97427e-005
-1.97469e-005
-1.97518e-005
-2.24268e-005
-2.24294e-005
-2.2433e-005
-2.24363e-005
-2.24392e-005
-2.24416e-005
-2.24437e-005
-2.24454e-005
-2.24467e-005
-2.24478e-005
-2.24493e-005
-2.24519e-005
-2.24568e-005
-2.24625e-005
-2.51518e-005
-2.51549e-005
-2.51592e-005
-2.51631e-005
-2.51664e-005
-2.51694e-005
-2.5172e-005
-2.51741e-005
-2.51758e-005
-2.51774e-005
-2.51794e-005
-2.51826e-005
-2.51883e-005
-2.51948e-005
-2.7899e-005
-2.79026e-005
-2.79076e-005
-2.79122e-005
-2.79162e-005
-2.79198e-005
-2.7923e-005
-2.79258e-005
-2.79281e-005
-2.79303e-005
-2.7933e-005
-2.79369e-005
-2.79433e-005
-2.79504e-005
-3.06698e-005
-3.06739e-005
-3.06798e-005
-3.06852e-005
-3.06899e-005
-3.06943e-005
-3.06983e-005
-3.07018e-005
-3.07049e-005
-3.07078e-005
-3.07112e-005
-3.07158e-005
-3.0723e-005
-3.07308e-005
-3.34652e-005
-3.34701e-005
-3.34769e-005
-3.34832e-005
-3.34888e-005
-3.3494e-005
-3.34988e-005
-3.35032e-005
-3.35071e-005
-3.35109e-005
-3.35151e-005
-3.35206e-005
-3.35285e-005
-3.3537e-005
-3.62862e-005
-3.62918e-005
-3.62997e-005
-3.63071e-005
-3.63137e-005
-3.63198e-005
-3.63256e-005
-3.63309e-005
-3.63358e-005
-3.63405e-005
-3.63457e-005
-3.6352e-005
-3.63608e-005
-3.63699e-005
-3.91332e-005
-3.91396e-005
-3.91488e-005
-3.91573e-005
-3.9165e-005
-3.91722e-005
-3.91791e-005
-3.91855e-005
-3.91915e-005
-3.91973e-005
-3.92035e-005
-3.92108e-005
-3.92203e-005
-3.92299e-005
-4.20065e-005
-4.20138e-005
-4.20244e-005
-4.20341e-005
-4.2043e-005
-4.20515e-005
-4.20595e-005
-4.20671e-005
-4.20743e-005
-4.20814e-005
-4.20887e-005
-4.2097e-005
-4.21073e-005
-4.21175e-005
-4.49058e-005
-4.49141e-005
-4.49261e-005
-4.49373e-005
-4.49475e-005
-4.49573e-005
-4.49666e-005
-4.49755e-005
-4.49841e-005
-4.49925e-005
-4.50012e-005
-4.50107e-005
-4.50218e-005
-4.50326e-005
-4.78308e-005
-4.784e-005
-4.78536e-005
-4.78663e-005
-4.7878e-005
-4.78892e-005
-4.79e-005
-4.79103e-005
-4.79204e-005
-4.79304e-005
-4.79404e-005
-4.79512e-005
-4.79633e-005
-4.79749e-005
-5.07809e-005
-5.07912e-005
-5.08065e-005
-5.08208e-005
-5.0834e-005
-5.08467e-005
-5.0859e-005
-5.08709e-005
-5.08826e-005
-5.08942e-005
-5.09058e-005
-5.09179e-005
-5.09311e-005
-5.09435e-005
-5.37552e-005
-5.37666e-005
-5.37837e-005
-5.37996e-005
-5.38145e-005
-5.38289e-005
-5.38428e-005
-5.38564e-005
-5.38698e-005
-5.38831e-005
-5.38963e-005
-5.39098e-005
-5.39242e-005
-5.39374e-005
-5.67529e-005
-5.67655e-005
-5.67845e-005
-5.68022e-005
-5.68187e-005
-5.68347e-005
-5.68504e-005
-5.68658e-005
-5.68809e-005
-5.68959e-005
-5.69108e-005
-5.69259e-005
-5.69415e-005
-5.69558e-005
-5.9773e-005
-5.97867e-005
-5.98076e-005
-5.98271e-005
-5.98454e-005
-5.98632e-005
-5.98807e-005
-5.98978e-005
-5.99148e-005
-5.99317e-005
-5.99485e-005
-5.99653e-005
-5.99825e-005
-5.99979e-005
-6.2814e-005
-6.2829e-005
-6.28518e-005
-6.28732e-005
-6.28933e-005
-6.29129e-005
-6.29323e-005
-6.29514e-005
-6.29704e-005
-6.29893e-005
-6.30081e-005
-6.3027e-005
-6.3046e-005
-6.30628e-005
-6.58745e-005
-6.5891e-005
-6.59158e-005
-6.59391e-005
-6.59611e-005
-6.59827e-005
-6.6004e-005
-6.60252e-005
-6.60464e-005
-6.60675e-005
-6.60885e-005
-6.61095e-005
-6.61307e-005
-6.61494e-005
-6.89546e-005
-6.8972e-005
-6.89987e-005
-6.9024e-005
-6.90479e-005
-6.90714e-005
-6.90947e-005
-6.9118e-005
-6.91414e-005
-6.91649e-005
-6.91882e-005
-6.92117e-005
-6.92353e-005
-6.92562e-005
-7.20519e-005
-7.20705e-005
-7.20991e-005
-7.21262e-005
-7.2152e-005
-7.21775e-005
-7.22029e-005
-7.22284e-005
-7.2254e-005
-7.22798e-005
-7.23056e-005
-7.23316e-005
-7.23579e-005
-7.23813e-005
-7.51662e-005
-7.51859e-005
-7.52164e-005
-7.52455e-005
-7.52732e-005
-7.53006e-005
-7.53281e-005
-7.53558e-005
-7.53837e-005
-7.54118e-005
-7.544e-005
-7.54686e-005
-7.54978e-005
-7.55237e-005
-7.82966e-005
-7.83174e-005
-7.83498e-005
-7.83808e-005
-7.84104e-005
-7.84398e-005
-7.84693e-005
-7.84991e-005
-7.85292e-005
-7.85597e-005
-7.85904e-005
-7.86216e-005
-7.86538e-005
-7.86824e-005
-8.14424e-005
-8.14642e-005
-8.14985e-005
-8.15314e-005
-8.15629e-005
-8.15941e-005
-8.16256e-005
-8.16575e-005
-8.16898e-005
-8.17225e-005
-8.17556e-005
-8.17896e-005
-8.18249e-005
-8.18564e-005
-8.46026e-005
-8.46253e-005
-8.46614e-005
-8.46961e-005
-8.47294e-005
-8.47624e-005
-8.47959e-005
-8.48297e-005
-8.48641e-005
-8.48991e-005
-8.49347e-005
-8.49715e-005
-8.50101e-005
-8.50447e-005
-8.77768e-005
-8.78002e-005
-8.78379e-005
-8.78744e-005
-8.79093e-005
-8.79441e-005
-8.79793e-005
-8.80151e-005
-8.80515e-005
-8.80887e-005
-8.81268e-005
-8.81665e-005
-8.82088e-005
-8.82467e-005
-9.09648e-005
-9.09887e-005
-9.10279e-005
-9.10659e-005
-9.11024e-005
-9.11387e-005
-9.11756e-005
-9.12132e-005
-9.12516e-005
-9.12909e-005
-9.13316e-005
-9.13743e-005
-9.14203e-005
-9.14618e-005
-9.41669e-005
-9.41911e-005
-9.42315e-005
-9.42709e-005
-9.43087e-005
-9.43464e-005
-9.43847e-005
-9.4424e-005
-9.44642e-005
-9.45057e-005
-9.45487e-005
-9.45945e-005
-9.46443e-005
-9.46896e-005
-9.73837e-005
-9.74079e-005
-9.74492e-005
-9.74898e-005
-9.75287e-005
-9.75675e-005
-9.7607e-005
-9.76476e-005
-9.76894e-005
-9.77328e-005
-9.77782e-005
-9.78269e-005
-9.78807e-005
-9.79298e-005
-0.000100616
-0.000100639
-0.000100681
-0.000100723
-0.000100763
-0.000100802
-0.000100842
-0.000100884
-0.000100927
-0.000100972
-0.00010102
-0.000101072
-0.000101129
-0.000101182
-0.000103863
-0.000103886
-0.000103928
-0.00010397
-0.000104011
-0.00010405
-0.000104091
-0.000104134
-0.000104178
-0.000104224
-0.000104274
-0.000104328
-0.00010439
-0.000104447
-0.000107128
-0.00010715
-0.000107191
-0.000107233
-0.000107273
-0.000107313
-0.000107354
-0.000107397
-0.000107441
-0.000107489
-0.00010754
-0.000107597
-0.000107663
-0.000107725
-0.000110412
-0.000110431
-0.000110471
-0.000110513
-0.000110552
-0.000110591
-0.000110631
-0.000110674
-0.000110719
-0.000110767
-0.00011082
-0.00011088
-0.000110949
-0.000111015
-0.000113715
-0.000113731
-0.00011377
-0.00011381
-0.000113848
-0.000113885
-0.000113924
-0.000113966
-0.000114011
-0.000114059
-0.000114113
-0.000114175
-0.000114249
-0.00011432
-0.000117041
-0.000117053
-0.000117089
-0.000117126
-0.000117162
-0.000117197
-0.000117234
-0.000117274
-0.000117318
-0.000117366
-0.000117421
-0.000117486
-0.000117565
-0.00011764
-0.000120391
-0.000120398
-0.000120429
-0.000120464
-0.000120497
-0.000120528
-0.000120562
-0.0001206
-0.000120642
-0.00012069
-0.000120745
-0.000120813
-0.000120896
-0.000120978
-0.000123768
-0.000123769
-0.000123795
-0.000123825
-0.000123853
-0.000123881
-0.000123911
-0.000123945
-0.000123985
-0.000124031
-0.000124087
-0.000124157
-0.000124246
-0.000124335
-0.000127177
-0.00012717
-0.000127188
-0.000127213
-0.000127236
-0.000127257
-0.000127282
-0.000127312
-0.000127349
-0.000127393
-0.000127449
-0.000127522
-0.000127618
-0.000127713
-0.000130621
-0.000130604
-0.000130613
-0.000130631
-0.000130647
-0.000130661
-0.00013068
-0.000130704
-0.000130737
-0.000130779
-0.000130835
-0.00013091
-0.000131012
-0.000131116
-0.000134103
-0.000134074
-0.000134073
-0.000134082
-0.000134089
-0.000134095
-0.000134106
-0.000134123
-0.000134151
-0.00013419
-0.000134245
-0.000134323
-0.000134433
-0.000134546
-0.000137628
-0.000137586
-0.000137572
-0.00013757
-0.000137567
-0.000137562
-0.000137563
-0.000137573
-0.000137594
-0.000137629
-0.000137683
-0.000137765
-0.000137883
-0.000138007
-0.000141202
-0.000141143
-0.000141113
-0.000141099
-0.000141084
-0.000141066
-0.000141056
-0.000141056
-0.000141069
-0.000141099
-0.000141152
-0.000141237
-0.000141366
-0.000141502
-0.000144829
-0.000144751
-0.000144702
-0.000144673
-0.000144643
-0.000144611
-0.000144587
-0.000144576
-0.00014458
-0.000144605
-0.000144656
-0.000144745
-0.000144885
-0.000145035
-0.000148514
-0.000148414
-0.000148343
-0.000148296
-0.00014825
-0.000148201
-0.000148162
-0.000148137
-0.000148131
-0.000148149
-0.000148198
-0.000148292
-0.000148444
-0.00014861
-0.000152262
-0.000152137
-0.000152041
-0.000151974
-0.000151908
-0.00015184
-0.000151783
-0.000151743
-0.000151725
-0.000151734
-0.000151781
-0.00015188
-0.000152047
-0.00015223
-0.00015608
-0.000155926
-0.000155801
-0.000155711
-0.000155623
-0.000155532
-0.000155455
-0.000155398
-0.000155366
-0.000155366
-0.00015541
-0.000155514
-0.000155696
-0.0001559
-0.000159971
-0.000159785
-0.000159627
-0.00015951
-0.000159397
-0.000159281
-0.000159181
-0.000159104
-0.000159057
-0.000159047
-0.000159087
-0.000159197
-0.000159396
-0.000159622
-0.000163942
-0.000163718
-0.000163523
-0.000163377
-0.000163236
-0.000163091
-0.000162965
-0.000162866
-0.000162801
-0.000162779
-0.000162815
-0.000162931
-0.00016315
-0.0001634
-0.000167996
-0.000167731
-0.000167494
-0.000167314
-0.000167141
-0.000166964
-0.000166809
-0.000166686
-0.000166602
-0.000166566
-0.000166597
-0.00016672
-0.00016696
-0.000167236
-0.000172136
-0.000171824
-0.000171541
-0.000171324
-0.000171115
-0.000170903
-0.000170716
-0.000170565
-0.000170459
-0.00017041
-0.000170435
-0.000170565
-0.000170828
-0.000171133
-0.000176364
-0.000176
-0.000175666
-0.000175407
-0.00017516
-0.000174909
-0.000174686
-0.000174505
-0.000174376
-0.00017431
-0.00017433
-0.000174468