/*--------------------------------*- C++ -*----------------------------------*\
| =========                 |                                                 |
| \\      /  F ield         | OpenFOAM: The Open Source CFD Toolbox           |
|  \\    /   O peration     | Version:  5.x                                   |
|   \\  /    A nd           | Web:      www.OpenFOAM.org                      |
|    \\/     M anipulation  |                                                 |
\*---------------------------------------------------------------------------*/
/*   Windows 32 and 64 bit porting by blueCAPE: http://www.bluecape.com.pt   *\
|  Based on Windows porting (2.0.x v4) by Symscape: http://www.symscape.com   |
\*---------------------------------------------------------------------------*/
FoamFile
{
    version     2.0;
    format      ascii;
    class       volScalarField;
    location    "0.7";
    object      p;
}
// * * * * * * * * * * * * * * * * * * * * * * * * * * * * * * * * * * * * * //

dimensions      [0 2 -2 0 0 0 0];

internalField   nonuniform List<scalar> 
141075
(
-4.74527e-007
-4.69051e-007
-4.66695e-007
-4.645e-007
-4.63024e-007
-4.61963e-007
-4.6116e-007
-4.60504e-007
-4.5996e-007
-4.59526e-007
-4.58895e-007
-4.5811e-007
-4.57041e-007
-4.55489e-007
-1.47089e-006
-1.46518e-006
-1.46181e-006
-1.45918e-006
-1.45707e-006
-1.4553e-006
-1.45379e-006
-1.45245e-006
-1.45128e-006
-1.45029e-006
-1.44933e-006
-1.44845e-006
-1.44761e-006
-1.44693e-006
-2.51614e-006
-2.51624e-006
-2.51492e-006
-2.51372e-006
-2.51253e-006
-2.51142e-006
-2.51042e-006
-2.50955e-006
-2.50876e-006
-2.50797e-006
-2.50728e-006
-2.50656e-006
-2.50577e-006
-2.50508e-006
-3.53978e-006
-3.53952e-006
-3.5387e-006
-3.53788e-006
-3.5371e-006
-3.53639e-006
-3.53569e-006
-3.53499e-006
-3.53427e-006
-3.53354e-006
-3.53279e-006
-3.53199e-006
-3.53112e-006
-3.53024e-006
-4.54509e-006
-4.54457e-006
-4.54361e-006
-4.54268e-006
-4.54182e-006
-4.54101e-006
-4.54022e-006
-4.53939e-006
-4.53853e-006
-4.53761e-006
-4.53664e-006
-4.53563e-006
-4.53465e-006
-4.5338e-006
-5.5365e-006
-5.53581e-006
-5.53461e-006
-5.53346e-006
-5.53241e-006
-5.5314e-006
-5.53043e-006
-5.52947e-006
-5.52846e-006
-5.52739e-006
-5.52622e-006
-5.52496e-006
-5.52373e-006
-5.52269e-006
-6.51416e-006
-6.51338e-006
-6.512e-006
-6.51065e-006
-6.50942e-006
-6.50829e-006
-6.50717e-006
-6.50599e-006
-6.50473e-006
-6.50332e-006
-6.50176e-006
-6.50006e-006
-6.49846e-006
-6.49717e-006
-7.47526e-006
-7.47436e-006
-7.47276e-006
-7.47117e-006
-7.46966e-006
-7.46818e-006
-7.46666e-006
-7.46502e-006
-7.46322e-006
-7.46123e-006
-7.45905e-006
-7.45674e-006
-7.45463e-006
-7.45293e-006
-8.41669e-006
-8.41561e-006
-8.4136e-006
-8.41152e-006
-8.40947e-006
-8.40739e-006
-8.40518e-006
-8.40277e-006
-8.40012e-006
-8.39721e-006
-8.39409e-006
-8.39086e-006
-8.38797e-006
-8.38572e-006
-9.33586e-006
-9.33461e-006
-9.33222e-006
-9.32955e-006
-9.32674e-006
-9.32379e-006
-9.32061e-006
-9.3171e-006
-9.31321e-006
-9.30891e-006
-9.30428e-006
-9.29948e-006
-9.29521e-006
-9.29196e-006
-1.02304e-005
-1.02289e-005
-1.0226e-005
-1.02228e-005
-1.02192e-005
-1.02153e-005
-1.0211e-005
-1.02061e-005
-1.02007e-005
-1.01946e-005
-1.0188e-005
-1.01813e-005
-1.01755e-005
-1.01712e-005
-1.10986e-005
-1.10968e-005
-1.10934e-005
-1.10894e-005
-1.1085e-005
-1.10801e-005
-1.10746e-005
-1.10684e-005
-1.10614e-005
-1.10537e-005
-1.10455e-005
-1.10372e-005
-1.103e-005
-1.10247e-005
-1.19382e-005
-1.19363e-005
-1.19324e-005
-1.19277e-005
-1.19224e-005
-1.19165e-005
-1.19098e-005
-1.19023e-005
-1.18938e-005
-1.18845e-005
-1.18746e-005
-1.18645e-005
-1.18559e-005
-1.18494e-005
-1.27467e-005
-1.27445e-005
-1.274e-005
-1.27346e-005
-1.27285e-005
-1.27216e-005
-1.27137e-005
-1.27048e-005
-1.26947e-005
-1.26836e-005
-1.26717e-005
-1.26595e-005
-1.2649e-005
-1.2641e-005
-1.35216e-005
-1.35191e-005
-1.3514e-005
-1.35078e-005
-1.35007e-005
-1.34926e-005
-1.34832e-005
-1.34726e-005
-1.34605e-005
-1.34472e-005
-1.34329e-005
-1.34183e-005
-1.34056e-005
-1.33961e-005
-1.42591e-005
-1.42565e-005
-1.42508e-005
-1.42438e-005
-1.42356e-005
-1.42262e-005
-1.42153e-005
-1.42028e-005
-1.41887e-005
-1.41731e-005
-1.41562e-005
-1.41391e-005
-1.41242e-005
-1.41129e-005
-1.49547e-005
-1.49518e-005
-1.49456e-005
-1.49379e-005
-1.49288e-005
-1.49183e-005
-1.49061e-005
-1.48921e-005
-1.48763e-005
-1.48586e-005
-1.48395e-005
-1.482e-005
-1.4803e-005
-1.47899e-005
-1.56032e-005
-1.56002e-005
-1.55934e-005
-1.5585e-005
-1.55751e-005
-1.55637e-005
-1.55504e-005
-1.55351e-005
-1.55178e-005
-1.54984e-005
-1.54773e-005
-1.54557e-005
-1.54369e-005
-1.54222e-005
-1.61981e-005
-1.61949e-005
-1.61877e-005
-1.61788e-005
-1.61682e-005
-1.6156e-005
-1.61418e-005
-1.61255e-005
-1.61069e-005
-1.60861e-005
-1.60634e-005
-1.60402e-005
-1.60197e-005
-1.60038e-005
-1.67324e-005
-1.6729e-005
-1.67213e-005
-1.67118e-005
-1.67007e-005
-1.66879e-005
-1.66731e-005
-1.6656e-005
-1.66365e-005
-1.66146e-005
-1.65907e-005
-1.6566e-005
-1.65442e-005
-1.65269e-005
-1.71993e-005
-1.71957e-005
-1.71874e-005
-1.71773e-005
-1.71657e-005
-1.71524e-005
-1.7137e-005
-1.71192e-005
-1.7099e-005
-1.70763e-005
-1.70515e-005
-1.70257e-005
-1.70027e-005
-1.69844e-005
-1.75927e-005
-1.75887e-005
-1.75798e-005
-1.7569e-005
-1.75568e-005
-1.75429e-005
-1.7527e-005
-1.75087e-005
-1.74879e-005
-1.74645e-005
-1.7439e-005
-1.74125e-005
-1.73888e-005
-1.73697e-005
-1.79092e-005
-1.79046e-005
-1.78948e-005
-1.78833e-005
-1.78703e-005
-1.78558e-005
-1.78392e-005
-1.78203e-005
-1.7799e-005
-1.77751e-005
-1.77491e-005
-1.7722e-005
-1.76977e-005
-1.76782e-005
-1.81488e-005
-1.81434e-005
-1.81324e-005
-1.81199e-005
-1.81062e-005
-1.80909e-005
-1.80736e-005
-1.80541e-005
-1.80322e-005
-1.80079e-005
-1.79815e-005
-1.79541e-005
-1.79294e-005
-1.79096e-005
-1.8316e-005
-1.83094e-005
-1.82972e-005
-1.82836e-005
-1.82688e-005
-1.82524e-005
-1.82342e-005
-1.82139e-005
-1.81913e-005
-1.81665e-005
-1.81399e-005
-1.81125e-005
-1.80877e-005
-1.80681e-005
-1.84185e-005
-1.84107e-005
-1.83969e-005
-1.83819e-005
-1.83658e-005
-1.83483e-005
-1.8329e-005
-1.83077e-005
-1.82843e-005
-1.8259e-005
-1.82322e-005
-1.82047e-005
-1.818e-005
-1.81607e-005
-1.84684e-005
-1.84592e-005
-1.84438e-005
-1.84273e-005
-1.84099e-005
-1.8391e-005
-1.83704e-005
-1.8348e-005
-1.83237e-005
-1.82979e-005
-1.82708e-005
-1.82434e-005
-1.82186e-005
-1.81996e-005
-1.84796e-005
-1.84689e-005
-1.84517e-005
-1.84337e-005
-1.84149e-005
-1.83947e-005
-1.8373e-005
-1.83496e-005
-1.83247e-005
-1.82984e-005
-1.82713e-005
-1.82441e-005
-1.82194e-005
-1.82007e-005
-1.84673e-005
-1.84551e-005
-1.84363e-005
-1.84168e-005
-1.83966e-005
-1.83752e-005
-1.83524e-005
-1.83283e-005
-1.83029e-005
-1.82765e-005
-1.82496e-005
-1.82229e-005
-1.81984e-005
-1.81802e-005
-1.84454e-005
-1.84318e-005
-1.84113e-005
-1.83904e-005
-1.83691e-005
-1.83468e-005
-1.83232e-005
-1.82984e-005
-1.82728e-005
-1.82464e-005
-1.82199e-005
-1.81938e-005
-1.81697e-005
-1.81518e-005
-1.84264e-005
-1.84116e-005
-1.83894e-005
-1.83672e-005
-1.83448e-005
-1.83214e-005
-1.82969e-005
-1.82715e-005
-1.82455e-005
-1.8219e-005
-1.81926e-005
-1.81668e-005
-1.81427e-005
-1.81248e-005
-1.84197e-005
-1.84036e-005
-1.83798e-005
-1.83562e-005
-1.83325e-005
-1.83078e-005
-1.82822e-005
-1.82558e-005
-1.82288e-005
-1.82017e-005
-1.81747e-005
-1.81483e-005
-1.81236e-005
-1.81052e-005
-1.8432e-005
-1.84147e-005
-1.83893e-005
-1.83641e-005
-1.83389e-005
-1.83128e-005
-1.82857e-005
-1.82578e-005
-1.82293e-005
-1.82006e-005
-1.81723e-005
-1.81446e-005
-1.81187e-005
-1.80997e-005
-1.84678e-005
-1.84493e-005
-1.84222e-005
-1.83955e-005
-1.83689e-005
-1.83412e-005
-1.83126e-005
-1.82832e-005
-1.82533e-005
-1.82232e-005
-1.81935e-005
-1.81647e-005
-1.81377e-005
-1.81183e-005
-1.85307e-005
-1.85109e-005
-1.84822e-005
-1.8454e-005
-1.8426e-005
-1.83972e-005
-1.83675e-005
-1.83372e-005
-1.83066e-005
-1.82759e-005
-1.82459e-005
-1.82168e-005
-1.81896e-005
-1.81703e-005
-1.86242e-005
-1.86032e-005
-1.85729e-005
-1.85433e-005
-1.85143e-005
-1.84846e-005
-1.84542e-005
-1.84235e-005
-1.83927e-005
-1.83622e-005
-1.83325e-005
-1.83038e-005
-1.82768e-005
-1.82577e-005
-1.8752e-005
-1.873e-005
-1.86981e-005
-1.86673e-005
-1.86371e-005
-1.86065e-005
-1.85755e-005
-1.85443e-005
-1.85132e-005
-1.84826e-005
-1.84527e-005
-1.84238e-005
-1.83965e-005
-1.83767e-005
-1.89147e-005
-1.88919e-005
-1.88587e-005
-1.88264e-005
-1.87949e-005
-1.87629e-005
-1.87304e-005
-1.86977e-005
-1.8665e-005
-1.86326e-005
-1.86007e-005
-1.85695e-005
-1.85399e-005
-1.85172e-005
-1.91048e-005
-1.90817e-005
-1.90471e-005
-1.90132e-005
-1.89796e-005
-1.89452e-005
-1.89099e-005
-1.88739e-005
-1.88372e-005
-1.88002e-005
-1.87631e-005
-1.87261e-005
-1.86902e-005
-1.86618e-005
-1.93051e-005
-1.92818e-005
-1.92457e-005
-1.92096e-005
-1.91732e-005
-1.91353e-005
-1.90956e-005
-1.90544e-005
-1.90114e-005
-1.89671e-005
-1.89216e-005
-1.88756e-005
-1.88309e-005
-1.87947e-005
-1.9491e-005
-1.94674e-005
-1.94295e-005
-1.93909e-005
-1.93511e-005
-1.9309e-005
-1.92644e-005
-1.92171e-005
-1.91672e-005
-1.91149e-005
-1.90607e-005
-1.90053e-005
-1.89518e-005
-1.89084e-005
-1.9638e-005
-1.96137e-005
-1.95736e-005
-1.95323e-005
-1.94893e-005
-1.94435e-005
-1.93947e-005
-1.93427e-005
-1.92875e-005
-1.92295e-005
-1.91693e-005
-1.91078e-005
-1.90487e-005
-1.90007e-005
-1.973e-005
-1.97043e-005
-1.96619e-005
-1.96182e-005
-1.95728e-005
-1.95247e-005
-1.94736e-005
-1.94193e-005
-1.9362e-005
-1.9302e-005
-1.92399e-005
-1.91767e-005
-1.9116e-005
-1.90665e-005
-1.97619e-005
-1.97345e-005
-1.96899e-005
-1.96445e-005
-1.95979e-005
-1.9549e-005
-1.94975e-005
-1.94434e-005
-1.93867e-005
-1.93277e-005
-1.92668e-005
-1.92049e-005
-1.91453e-005
-1.90968e-005
-1.97371e-005
-1.97078e-005
-1.9661e-005
-1.96142e-005
-1.95671e-005
-1.95184e-005
-1.94677e-005
-1.9415e-005
-1.93602e-005
-1.93034e-005
-1.9245e-005
-1.91854e-005
-1.91278e-005
-1.90808e-005
-1.96615e-005
-1.96299e-005
-1.95807e-005
-1.95323e-005
-1.94845e-005
-1.94357e-005
-1.93854e-005
-1.93336e-005
-1.92802e-005
-1.92252e-005
-1.91687e-005
-1.9111e-005
-1.9055e-005
-1.90097e-005
-1.95437e-005
-1.95093e-005
-1.94569e-005
-1.9406e-005
-1.93562e-005
-1.93057e-005
-1.92541e-005
-1.92013e-005
-1.91473e-005
-1.9092e-005
-1.90357e-005
-1.89787e-005
-1.89236e-005
-1.888e-005
-1.93968e-005
-1.93592e-005
-1.93028e-005
-1.92482e-005
-1.91948e-005
-1.91406e-005
-1.90853e-005
-1.9029e-005
-1.89718e-005
-1.89136e-005
-1.88552e-005
-1.8797e-005
-1.87418e-005
-1.87001e-005
-1.92382e-005
-1.9197e-005
-1.91361e-005
-1.90768e-005
-1.90187e-005
-1.89594e-005
-1.88986e-005
-1.88367e-005
-1.87738e-005
-1.87105e-005
-1.86475e-005
-1.85859e-005
-1.85289e-005
-1.84882e-005
-1.90836e-005
-1.90389e-005
-1.89731e-005
-1.89088e-005
-1.88453e-005
-1.87799e-005
-1.87127e-005
-1.8644e-005
-1.8574e-005
-1.85036e-005
-1.84339e-005
-1.83665e-005
-1.83053e-005
-1.82637e-005
-1.89439e-005
-1.88954e-005
-1.88245e-005
-1.87548e-005
-1.86853e-005
-1.86135e-005
-1.85392e-005
-1.84628e-005
-1.83848e-005
-1.83061e-005
-1.82282e-005
-1.81533e-005
-1.80862e-005
-1.8042e-005
-1.88275e-005
-1.87749e-005
-1.86982e-005
-1.86225e-005
-1.85466e-005
-1.84677e-005
-1.83857e-005
-1.8301e-005
-1.82143e-005
-1.81266e-005
-1.80398e-005
-1.79565e-005
-1.7883e-005
-1.78355e-005
-1.87454e-005
-1.86882e-005
-1.86052e-005
-1.85229e-005
-1.84401e-005
-1.83536e-005
-1.82632e-005
-1.81697e-005
-1.80736e-005
-1.79763e-005
-1.78799e-005
-1.77878e-005
-1.77072e-005
-1.76561e-005
-1.87098e-005
-1.86478e-005
-1.85582e-005
-1.8469e-005
-1.8379e-005
-1.82844e-005
-1.81853e-005
-1.80823e-005
-1.79761e-005
-1.7868e-005
-1.77608e-005
-1.76581e-005
-1.75689e-005
-1.75126e-005
-1.87284e-005
-1.86613e-005
-1.85646e-005
-1.84681e-005
-1.83703e-005
-1.8267e-005
-1.81585e-005
-1.80451e-005
-1.79277e-005
-1.78075e-005
-1.76875e-005
-1.75722e-005
-1.74726e-005
-1.74097e-005
-1.88019e-005
-1.87289e-005
-1.8624e-005
-1.85192e-005
-1.84126e-005
-1.82996e-005
-1.81804e-005
-1.80555e-005
-1.79255e-005
-1.7792e-005
-1.76581e-005
-1.75293e-005
-1.74187e-005
-1.73494e-005
-1.893e-005
-1.88496e-005
-1.87351e-005
-1.86205e-005
-1.85037e-005
-1.83795e-005
-1.82484e-005
-1.81107e-005
-1.79671e-005
-1.78193e-005
-1.76711e-005
-1.75287e-005
-1.74079e-005
-1.73336e-005
-1.91151e-005
-1.90262e-005
-1.89004e-005
-1.87748e-005
-1.86467e-005
-1.85104e-005
-1.83662e-005
-1.82148e-005
-1.80569e-005
-1.78941e-005
-1.77309e-005
-1.75746e-005
-1.74443e-005
-1.73669e-005
-1.936e-005
-1.9261e-005
-1.91226e-005
-1.89851e-005
-1.88452e-005
-1.86962e-005
-1.85389e-005
-1.83736e-005
-1.8201e-005
-1.80231e-005
-1.78447e-005
-1.76748e-005
-1.7536e-005
-1.74581e-005
-1.96655e-005
-1.95543e-005
-1.94015e-005
-1.92511e-005
-1.90991e-005
-1.89377e-005
-1.87676e-005
-1.85892e-005
-1.84032e-005
-1.82116e-005
-1.80199e-005
-1.78385e-005
-1.76943e-005
-1.76197e-005
-2.00344e-005
-1.99085e-005
-1.9739e-005
-1.95744e-005
-1.941e-005
-1.92363e-005
-1.90544e-005
-1.88647e-005
-1.86676e-005
-1.84649e-005
-1.82628e-005
-1.80733e-005
-1.79274e-005
-1.78602e-005
-2.04754e-005
-2.0332e-005
-2.01431e-005
-1.9963e-005
-1.97856e-005
-1.95995e-005
-1.94065e-005
-1.92066e-005
-1.89999e-005
-1.87882e-005
-1.85776e-005
-1.83817e-005
-1.82364e-005
-1.81798e-005
-2.10041e-005
-2.08398e-005
-2.06283e-005
-2.04304e-005
-2.02385e-005
-2.00389e-005
-1.98338e-005
-1.96231e-005
-1.94065e-005
-1.91853e-005
-1.89658e-005
-1.87633e-005
-1.86193e-005
-1.85754e-005
-2.16399e-005
-2.1451e-005
-2.12129e-005
-2.09939e-005
-2.07845e-005
-2.05685e-005
-2.03487e-005
-2.01247e-005
-1.98957e-005
-1.96624e-005
-1.94315e-005
-1.92201e-005
-1.90769e-005
-1.90475e-005
-2.23995e-005
-2.2182e-005
-2.19129e-005
-2.16691e-005
-2.14389e-005
-2.12031e-005
-2.09651e-005
-2.07242e-005
-2.04787e-005
-2.02288e-005
-1.99814e-005
-1.97561e-005
-1.96105e-005
-1.95956e-005
-2.32966e-005
-2.30454e-005
-2.27395e-005
-2.24666e-005
-2.22118e-005
-2.19521e-005
-2.16918e-005
-2.14293e-005
-2.1162e-005
-2.08892e-005
-2.0618e-005
-2.03715e-005
-2.02184e-005
-2.02174e-005
-2.43461e-005
-2.40552e-005
-2.37061e-005
-2.33979e-005
-2.31127e-005
-2.28228e-005
-2.25335e-005
-2.22424e-005
-2.19458e-005
-2.1642e-005
-2.13391e-005
-2.10644e-005
-2.09e-005
-2.09136e-005
-2.55639e-005
-2.52271e-005
-2.48273e-005
-2.44769e-005
-2.41538e-005
-2.38255e-005
-2.34984e-005
-2.31696e-005
-2.28344e-005
-2.24905e-005
-2.21471e-005
-2.18368e-005
-2.16574e-005
-2.16871e-005
-2.69623e-005
-2.65724e-005
-2.61134e-005
-2.5713e-005
-2.53444e-005
-2.49692e-005
-2.45956e-005
-2.422e-005
-2.38367e-005
-2.34427e-005
-2.30487e-005
-2.26934e-005
-2.2493e-005
-2.25389e-005
-2.8549e-005
-2.80983e-005
-2.75709e-005
-2.71117e-005
-2.66886e-005
-2.62572e-005
-2.58276e-005
-2.53958e-005
-2.4955e-005
-2.45015e-005
-2.40475e-005
-2.36385e-005
-2.34123e-005
-2.34757e-005
-3.0325e-005
-2.98057e-005
-2.92003e-005
-2.86731e-005
-2.81862e-005
-2.76884e-005
-2.71927e-005
-2.66949e-005
-2.61874e-005
-2.5666e-005
-2.51448e-005
-2.46771e-005
-2.44243e-005
-2.45101e-005
-3.22809e-005
-3.16845e-005
-3.09918e-005
-3.03884e-005
-2.98301e-005
-2.92581e-005
-2.86885e-005
-2.81171e-005
-2.75354e-005
-2.69389e-005
-2.63438e-005
-2.58124e-005
-2.55327e-005
-2.56472e-005
-3.44006e-005
-3.37183e-005
-3.29292e-005
-3.22431e-005
-3.16083e-005
-3.09571e-005
-3.03091e-005
-2.96593e-005
-2.89983e-005
-2.83206e-005
-2.76452e-005
-2.70445e-005
-2.67365e-005
-2.68848e-005
-3.66686e-005
-3.58921e-005
-3.49984e-005
-3.42236e-005
-3.35078e-005
-3.27731e-005
-3.20425e-005
-3.13106e-005
-3.05663e-005
-2.98034e-005
-2.90433e-005
-2.83693e-005
-2.80322e-005
-2.82195e-005
-3.90699e-005
-3.81915e-005
-3.71854e-005
-3.63162e-005
-3.55141e-005
-3.46908e-005
-3.38731e-005
-3.30547e-005
-3.2223e-005
-3.13707e-005
-3.05218e-005
-2.97716e-005
-2.94063e-005
-2.96389e-005
-4.15791e-005
-4.05922e-005
-3.94671e-005
-3.84984e-005
-3.76063e-005
-3.66905e-005
-3.57817e-005
-3.48725e-005
-3.39488e-005
-3.30021e-005
-3.20596e-005
-3.12304e-005
-3.08389e-005
-3.11242e-005
-4.41577e-005
-4.30566e-005
-4.18071e-005
-4.07355e-005
-3.97513e-005
-3.8741e-005
-3.77393e-005
-3.67376e-005
-3.572e-005
-3.46773e-005
-3.36399e-005
-3.27311e-005
-3.23152e-005
-3.26584e-005
-4.67598e-005
-4.55401e-005
-4.41613e-005
-4.29836e-005
-4.19052e-005
-4.07994e-005
-3.97056e-005
-3.86144e-005
-3.75076e-005
-3.6374e-005
-3.52459e-005
-3.42595e-005
-3.3821e-005
-3.4225e-005
-4.93353e-005
-4.79942e-005
-4.64837e-005
-4.51982e-005
-4.40251e-005
-4.28252e-005
-4.16432e-005
-4.04685e-005
-3.92803e-005
-3.80637e-005
-3.6852e-005
-3.57946e-005
-3.53404e-005
-3.58113e-005
-5.1833e-005
-5.03703e-005
-4.87288e-005
-4.73382e-005
-4.60747e-005
-4.47859e-005
-4.35213e-005
-4.22692e-005
-4.10057e-005
-3.97137e-005
-3.84279e-005
-3.73111e-005
-3.68536e-005
-3.73997e-005
-5.42028e-005
-5.2621e-005
-5.08528e-005
-4.9363e-005
-4.80159e-005
-4.66451e-005
-4.53046e-005
-4.39816e-005
-4.26505e-005
-4.12921e-005
-3.99427e-005
-3.87773e-005
-3.83262e-005
-3.89524e-005
-5.6397e-005
-5.47021e-005
-5.28143e-005
-5.1232e-005
-4.98084e-005
-4.83633e-005
-4.69549e-005
-4.55696e-005
-4.418e-005
-4.27645e-005
-4.13603e-005
-4.01543e-005
-3.97152e-005
-4.04216e-005
-5.83669e-005
-5.65678e-005
-5.45697e-005
-5.29029e-005
-5.14105e-005
-4.98997e-005
-4.84329e-005
-4.69947e-005
-4.55552e-005
-4.40903e-005
-4.26382e-005
-4.13978e-005
-4.09748e-005
-4.17596e-005
-6.00593e-005
-5.81686e-005
-5.60732e-005
-5.4332e-005
-5.27795e-005
-5.12126e-005
-4.96972e-005
-4.82163e-005
-4.67371e-005
-4.52323e-005
-4.37404e-005
-4.24719e-005
-4.20677e-005
-4.29266e-005
-6.14209e-005
-5.94543e-005
-5.72788e-005
-5.54777e-005
-5.38778e-005
-5.22667e-005
-5.07136e-005
-4.92006e-005
-4.76929e-005
-4.61606e-005
-4.46419e-005
-4.3357e-005
-4.29766e-005
-4.39017e-005
-6.24087e-005
-6.03838e-005
-5.81466e-005
-5.63024e-005
-5.46711e-005
-5.30311e-005
-5.14537e-005
-4.99206e-005
-4.83961e-005
-4.68493e-005
-4.53186e-005
-4.40307e-005
-4.36797e-005
-4.46612e-005
-6.29958e-005
-6.09361e-005
-5.86609e-005
-5.67899e-005
-5.51404e-005
-5.34851e-005
-5.18968e-005
-5.0357e-005
-4.88294e-005
-4.72817e-005
-4.5752e-005
-4.44726e-005
-4.41551e-005
-4.51849e-005
-6.31553e-005
-6.10878e-005
-5.88032e-005
-5.69258e-005
-5.52726e-005
-5.36158e-005
-5.20293e-005
-5.04951e-005
-4.8978e-005
-4.74458e-005
-4.59362e-005
-4.46834e-005
-4.44076e-005
-4.54758e-005
-6.28661e-005
-6.08186e-005
-5.85544e-005
-5.66956e-005
-5.50596e-005
-5.34195e-005
-5.18498e-005
-5.03344e-005
-4.88408e-005
-4.73396e-005
-4.58684e-005
-4.46611e-005
-4.44361e-005
-4.55324e-005
-6.21304e-005
-6.01329e-005
-5.7921e-005
-5.61059e-005
-5.45089e-005
-5.29067e-005
-5.13728e-005
-4.98927e-005
-4.8437e-005
-4.69788e-005
-4.55575e-005
-4.44068e-005
-4.42353e-005
-4.53476e-005
-6.09634e-005
-5.90466e-005
-5.69187e-005
-5.51717e-005
-5.36345e-005
-5.20913e-005
-5.06128e-005
-4.91857e-005
-4.77838e-005
-4.63837e-005
-4.50262e-005
-4.39428e-005
-4.38231e-005
-4.49324e-005
-5.94017e-005
-5.75968e-005
-5.55863e-005
-5.39322e-005
-5.24748e-005
-5.10094e-005
-4.96031e-005
-4.82455e-005
-4.69142e-005
-4.55893e-005
-4.43106e-005
-4.33023e-005
-4.32255e-005
-4.43048e-005
-5.75031e-005
-5.58444e-005
-5.39879e-005
-5.24516e-005
-5.10917e-005
-4.97214e-005
-4.84026e-005
-4.71286e-005
-4.58819e-005
-4.46465e-005
-4.34594e-005
-4.25305e-005
-4.24788e-005
-4.34912e-005
-5.5329e-005
-5.3844e-005
-5.21725e-005
-5.07792e-005
-4.95385e-005
-4.82851e-005
-4.70725e-005
-4.58946e-005
-4.47382e-005
-4.35943e-005
-4.25033e-005
-4.16601e-005
-4.16267e-005
-4.25448e-005
-5.29846e-005
-5.16965e-005
-5.02328e-005
-4.89979e-005
-4.78884e-005
-4.67637e-005
-4.56714e-005
-4.46048e-005
-4.35515e-005
-4.25071e-005
-4.15136e-005
-4.07518e-005
-4.07231e-005
-4.15249e-005
-5.06239e-005
-4.95541e-005
-4.83211e-005
-4.7256e-005
-4.62793e-005
-4.52797e-005
-4.42979e-005
-4.3334e-005
-4.23846e-005
-4.14461e-005
-4.05527e-005
-3.98663e-005
-3.9822e-005
-4.04811e-005
-4.84174e-005
-4.75679e-005
-4.65597e-005
-4.56559e-005
-4.48096e-005
-4.39336e-005
-4.30558e-005
-4.21797e-005
-4.1309e-005
-4.04545e-005
-3.96554e-005
-3.90477e-005
-3.89856e-005
-3.9487e-005
-4.66214e-005
-4.59909e-005
-4.51955e-005
-4.44249e-005
-4.36644e-005
-4.2869e-005
-4.20572e-005
-4.12309e-005
-4.04027e-005
-3.95967e-005
-3.88567e-005
-3.83002e-005
-3.82086e-005
-3.85658e-005
-4.54369e-005
-4.49743e-005
-4.43157e-005
-4.36068e-005
-4.28605e-005
-4.2063e-005
-4.12322e-005
-4.03846e-005
-3.95463e-005
-3.87552e-005
-3.80617e-005
-3.75734e-005
-3.75147e-005
-3.78086e-005
-4.73543e-007
-4.67648e-007
-4.65273e-007
-4.63317e-007
-4.61967e-007
-4.6099e-007
-4.60251e-007
-4.59658e-007
-4.59191e-007
-4.58827e-007
-4.58046e-007
-4.57229e-007
-4.56286e-007
-4.55295e-007
-1.46757e-006
-1.46153e-006
-1.4581e-006
-1.45547e-006
-1.45343e-006
-1.45178e-006
-1.45041e-006
-1.44926e-006
-1.44827e-006
-1.44743e-006
-1.44665e-006
-1.44601e-006
-1.44546e-006
-1.44515e-006
-2.50747e-006
-2.50759e-006
-2.50636e-006
-2.50531e-006
-2.50434e-006
-2.50347e-006
-2.50274e-006
-2.50218e-006
-2.50175e-006
-2.50141e-006
-2.50117e-006
-2.50095e-006
-2.50074e-006
-2.50058e-006
-3.5263e-006
-3.52615e-006
-3.52556e-006
-3.52501e-006
-3.52458e-006
-3.52425e-006
-3.52402e-006
-3.52385e-006
-3.52374e-006
-3.52366e-006
-3.52362e-006
-3.52356e-006
-3.52345e-006
-3.52331e-006
-4.52659e-006
-4.52628e-006
-4.52565e-006
-4.52512e-006
-4.52473e-006
-4.52446e-006
-4.52432e-006
-4.52424e-006
-4.52421e-006
-4.52419e-006
-4.52419e-006
-4.52419e-006
-4.52419e-006
-4.52426e-006
-5.51211e-006
-5.51165e-006
-5.51087e-006
-5.51028e-006
-5.50988e-006
-5.50961e-006
-5.50947e-006
-5.50945e-006
-5.50951e-006
-5.50962e-006
-5.50974e-006
-5.50984e-006
-5.50995e-006
-5.51014e-006
-6.48299e-006
-6.48247e-006
-6.48159e-006
-6.48089e-006
-6.48044e-006
-6.4802e-006
-6.48011e-006
-6.48013e-006
-6.48021e-006
-6.48032e-006
-6.48042e-006
-6.48053e-006
-6.48074e-006
-6.48106e-006
-7.43629e-006
-7.4357e-006
-7.43468e-006
-7.43384e-006
-7.43325e-006
-7.43285e-006
-7.43259e-006
-7.43243e-006
-7.4323e-006
-7.43219e-006
-7.43211e-006
-7.43208e-006
-7.4323e-006
-7.43272e-006
-8.36883e-006
-8.36813e-006
-8.36684e-006
-8.36569e-006
-8.36474e-006
-8.36393e-006
-8.36323e-006
-8.36259e-006
-8.36195e-006
-8.36133e-006
-8.36078e-006
-8.3604e-006
-8.36046e-006
-8.36088e-006
-9.27786e-006
-9.27697e-006
-9.27534e-006
-9.27377e-006
-9.27232e-006
-9.27096e-006
-9.26963e-006
-9.26828e-006
-9.26685e-006
-9.26538e-006
-9.26395e-006
-9.26272e-006
-9.26219e-006
-9.26228e-006
-1.01612e-005
-1.01601e-005
-1.01581e-005
-1.0156e-005
-1.0154e-005
-1.0152e-005
-1.01498e-005
-1.01475e-005
-1.0145e-005
-1.01424e-005
-1.01398e-005
-1.01375e-005
-1.01363e-005
-1.01362e-005
-1.10168e-005
-1.10155e-005
-1.10131e-005
-1.10106e-005
-1.10079e-005
-1.10051e-005
-1.10021e-005
-1.09989e-005
-1.09954e-005
-1.09917e-005
-1.09882e-005
-1.09851e-005
-1.09835e-005
-1.09833e-005
-1.18427e-005
-1.18412e-005
-1.18383e-005
-1.18352e-005
-1.1832e-005
-1.18285e-005
-1.18247e-005
-1.18206e-005
-1.18162e-005
-1.18115e-005
-1.1807e-005
-1.18031e-005
-1.18012e-005
-1.18009e-005
-1.26365e-005
-1.26347e-005
-1.26314e-005
-1.26277e-005
-1.26238e-005
-1.26196e-005
-1.26149e-005
-1.26099e-005
-1.26044e-005
-1.25987e-005
-1.2593e-005
-1.25881e-005
-1.25856e-005
-1.2585e-005
-1.33956e-005
-1.33937e-005
-1.33899e-005
-1.33856e-005
-1.33809e-005
-1.33758e-005
-1.33701e-005
-1.33638e-005
-1.3357e-005
-1.33497e-005
-1.33426e-005
-1.33364e-005
-1.33331e-005
-1.33322e-005
-1.41169e-005
-1.41148e-005
-1.41105e-005
-1.41056e-005
-1.41001e-005
-1.40941e-005
-1.40873e-005
-1.40797e-005
-1.40714e-005
-1.40627e-005
-1.4054e-005
-1.40464e-005
-1.40422e-005
-1.40408e-005
-1.47964e-005
-1.4794e-005
-1.47892e-005
-1.47837e-005
-1.47775e-005
-1.47706e-005
-1.47629e-005
-1.47543e-005
-1.47448e-005
-1.47348e-005
-1.47248e-005
-1.4716e-005
-1.47111e-005
-1.47093e-005
-1.54291e-005
-1.54266e-005
-1.54214e-005
-1.54153e-005
-1.54085e-005
-1.54009e-005
-1.53923e-005
-1.53828e-005
-1.53724e-005
-1.53613e-005
-1.53502e-005
-1.53404e-005
-1.5335e-005
-1.5333e-005
-1.60095e-005
-1.60068e-005
-1.60011e-005
-1.59946e-005
-1.59873e-005
-1.59792e-005
-1.597e-005
-1.59598e-005
-1.59485e-005
-1.59366e-005
-1.59246e-005
-1.59142e-005
-1.59084e-005
-1.59063e-005
-1.65313e-005
-1.65284e-005
-1.65223e-005
-1.65153e-005
-1.65076e-005
-1.6499e-005
-1.64893e-005
-1.64786e-005
-1.64668e-005
-1.64542e-005
-1.64416e-005
-1.64305e-005
-1.64244e-005
-1.64221e-005
-1.69887e-005
-1.69856e-005
-1.6979e-005
-1.69715e-005
-1.69633e-005
-1.69542e-005
-1.69441e-005
-1.69329e-005
-1.69206e-005
-1.69075e-005
-1.68943e-005
-1.68828e-005
-1.68763e-005
-1.68737e-005
-1.73766e-005
-1.7373e-005
-1.73657e-005
-1.73577e-005
-1.7349e-005
-1.73394e-005
-1.73287e-005
-1.7317e-005
-1.73042e-005
-1.72905e-005
-1.72769e-005
-1.72649e-005
-1.7258e-005
-1.7255e-005
-1.7692e-005
-1.76879e-005
-1.76798e-005
-1.7671e-005
-1.76616e-005
-1.76513e-005
-1.76401e-005
-1.76277e-005
-1.76143e-005
-1.76001e-005
-1.75859e-005
-1.75732e-005
-1.75656e-005
-1.75621e-005
-1.79355e-005
-1.79306e-005
-1.79215e-005
-1.79118e-005
-1.79015e-005
-1.78905e-005
-1.78784e-005
-1.78653e-005
-1.78511e-005
-1.78362e-005
-1.78213e-005
-1.78078e-005
-1.77992e-005
-1.77948e-005
-1.81112e-005
-1.81053e-005
-1.80951e-005
-1.80842e-005
-1.80729e-005
-1.80607e-005
-1.80476e-005
-1.80334e-005
-1.80183e-005
-1.80025e-005
-1.79867e-005
-1.79724e-005
-1.79626e-005
-1.79571e-005
-1.82268e-005
-1.82198e-005
-1.82082e-005
-1.8196e-005
-1.81833e-005
-1.81699e-005
-1.81554e-005
-1.814e-005
-1.81237e-005
-1.81067e-005
-1.80898e-005
-1.80743e-005
-1.8063e-005
-1.80562e-005
-1.82932e-005
-1.82849e-005
-1.82718e-005
-1.82582e-005
-1.82442e-005
-1.82292e-005
-1.82134e-005
-1.81965e-005
-1.81788e-005
-1.81605e-005
-1.81424e-005
-1.81254e-005
-1.81121e-005
-1.81036e-005
-1.8323e-005
-1.83135e-005
-1.82988e-005
-1.82837e-005
-1.82681e-005
-1.82517e-005
-1.82344e-005
-1.82162e-005
-1.81972e-005
-1.81777e-005
-1.81582e-005
-1.81398e-005
-1.81244e-005
-1.81139e-005
-1.83293e-005
-1.83186e-005
-1.83024e-005
-1.82858e-005
-1.82689e-005
-1.82512e-005
-1.82326e-005
-1.82131e-005
-1.8193e-005
-1.81725e-005
-1.81521e-005
-1.81325e-005
-1.81152e-005
-1.81027e-005
-1.83246e-005
-1.83126e-005
-1.82949e-005
-1.8277e-005
-1.82589e-005
-1.824e-005
-1.82203e-005
-1.81999e-005
-1.81789e-005
-1.81576e-005
-1.81364e-005
-1.81158e-005
-1.80968e-005
-1.80824e-005
-1.83194e-005
-1.83063e-005
-1.82872e-005
-1.8268e-005
-1.82487e-005
-1.82287e-005
-1.82079e-005
-1.81865e-005
-1.81646e-005
-1.81425e-005
-1.81205e-005
-1.80988e-005
-1.80779e-005
-1.80617e-005
-1.83219e-005
-1.83077e-005
-1.82871e-005
-1.82665e-005
-1.82459e-005
-1.82246e-005
-1.82025e-005
-1.81799e-005
-1.81568e-005
-1.81335e-005
-1.81102e-005
-1.8087e-005
-1.80642e-005
-1.80461e-005
-1.83384e-005
-1.8323e-005
-1.83009e-005
-1.82789e-005
-1.82568e-005
-1.8234e-005
-1.82104e-005
-1.81862e-005
-1.81615e-005
-1.81365e-005
-1.81115e-005
-1.80866e-005
-1.80618e-005
-1.80422e-005
-1.83738e-005
-1.83573e-005
-1.83336e-005
-1.831e-005
-1.82865e-005
-1.82622e-005
-1.82371e-005
-1.82114e-005
-1.81851e-005
-1.81587e-005
-1.81323e-005
-1.8106e-005
-1.808e-005
-1.80597e-005
-1.84327e-005
-1.8415e-005
-1.83897e-005
-1.83647e-005
-1.83399e-005
-1.83143e-005
-1.82881e-005
-1.82613e-005
-1.82343e-005
-1.82071e-005
-1.81802e-005
-1.81537e-005
-1.81275e-005
-1.81075e-005
-1.85197e-005
-1.85009e-005
-1.84741e-005
-1.84478e-005
-1.84218e-005
-1.83953e-005
-1.83682e-005
-1.83409e-005
-1.83136e-005
-1.82864e-005
-1.82597e-005
-1.82336e-005
-1.8208e-005
-1.81886e-005
-1.86392e-005
-1.86194e-005
-1.85912e-005
-1.85636e-005
-1.85366e-005
-1.85091e-005
-1.84813e-005
-1.84533e-005
-1.84255e-005
-1.8398e-005
-1.83711e-005
-1.83449e-005
-1.83192e-005
-1.82996e-005
-1.87912e-005
-1.87708e-005
-1.87414e-005
-1.87126e-005
-1.86843e-005
-1.86554e-005
-1.86262e-005
-1.85967e-005
-1.85673e-005
-1.8538e-005
-1.85093e-005
-1.84809e-005
-1.84529e-005
-1.84306e-005
-1.89679e-005
-1.89473e-005
-1.89167e-005
-1.88865e-005
-1.88563e-005
-1.88252e-005
-1.87934e-005
-1.87609e-005
-1.87279e-005
-1.86945e-005
-1.8661e-005
-1.86273e-005
-1.85935e-005
-1.85651e-005
-1.91519e-005
-1.91312e-005
-1.90994e-005
-1.90672e-005
-1.90345e-005
-1.90004e-005
-1.89647e-005
-1.89275e-005
-1.8889e-005
-1.88491e-005
-1.88082e-005
-1.87665e-005
-1.87245e-005
-1.8688e-005
-1.9319e-005
-1.92982e-005
-1.92647e-005
-1.92303e-005
-1.91947e-005
-1.9157e-005
-1.9117e-005
-1.90747e-005
-1.90301e-005
-1.89834e-005
-1.8935e-005
-1.88852e-005
-1.88352e-005
-1.87913e-005
-1.94462e-005
-1.94247e-005
-1.93892e-005
-1.93524e-005
-1.93141e-005
-1.92731e-005
-1.92295e-005
-1.91832e-005
-1.91342e-005
-1.90828e-005
-1.90295e-005
-1.89748e-005
-1.89202e-005
-1.88723e-005
-1.95183e-005
-1.94955e-005
-1.94579e-005
-1.9419e-005
-1.93786e-005
-1.93357e-005
-1.92901e-005
-1.9242e-005
-1.91914e-005
-1.91386e-005
-1.90842e-005
-1.90288e-005
-1.89739e-005
-1.89258e-005
-1.95316e-005
-1.95071e-005
-1.94674e-005
-1.94269e-005
-1.93855e-005
-1.9342e-005
-1.92963e-005
-1.92486e-005
-1.91988e-005
-1.91474e-005
-1.90948e-005
-1.90416e-005
-1.89891e-005
-1.89435e-005
-1.94902e-005
-1.94638e-005
-1.94221e-005
-1.93804e-005
-1.93385e-005
-1.92953e-005
-1.92505e-005
-1.92042e-005
-1.91566e-005
-1.91077e-005
-1.90581e-005
-1.9008e-005
-1.89587e-005
-1.89163e-005
-1.94006e-005
-1.9372e-005
-1.93282e-005
-1.92852e-005
-1.92428e-005
-1.91995e-005
-1.91553e-005
-1.91103e-005
-1.90643e-005
-1.90176e-005
-1.89704e-005
-1.8923e-005
-1.88763e-005
-1.88367e-005
-1.92708e-005
-1.92398e-005
-1.91931e-005
-1.9148e-005
-1.9104e-005
-1.90595e-005
-1.90145e-005
-1.89691e-005
-1.89231e-005
-1.88768e-005
-1.88305e-005
-1.87844e-005
-1.87393e-005
-1.87023e-005
-1.91123e-005
-1.90782e-005
-1.90281e-005
-1.89798e-005
-1.89328e-005
-1.88854e-005
-1.88375e-005
-1.87894e-005
-1.87411e-005
-1.86929e-005
-1.86454e-005
-1.85989e-005
-1.85544e-005
-1.85197e-005
-1.89391e-005
-1.89018e-005
-1.88476e-005
-1.87952e-005
-1.87441e-005
-1.86923e-005
-1.864e-005
-1.85873e-005
-1.85347e-005
-1.84825e-005
-1.84317e-005
-1.83831e-005
-1.83377e-005
-1.83046e-005
-1.87651e-005
-1.87244e-005
-1.86658e-005
-1.86089e-005
-1.85531e-005
-1.84963e-005
-1.84385e-005
-1.83803e-005