/*--------------------------------*- C++ -*----------------------------------*\
| =========                 |                                                 |
| \\      /  F ield         | OpenFOAM: The Open Source CFD Toolbox           |
|  \\    /   O peration     | Version:  5.x                                   |
|   \\  /    A nd           | Web:      www.OpenFOAM.org                      |
|    \\/     M anipulation  |                                                 |
\*---------------------------------------------------------------------------*/
/*   Windows 32 and 64 bit porting by blueCAPE: http://www.bluecape.com.pt   *\
|  Based on Windows porting (2.0.x v4) by Symscape: http://www.symscape.com   |
\*---------------------------------------------------------------------------*/
FoamFile
{
    version     2.0;
    format      ascii;
    class       volScalarField;
    location    "1.3";
    object      p;
}
// * * * * * * * * * * * * * * * * * * * * * * * * * * * * * * * * * * * * * //

dimensions      [0 2 -2 0 0 0 0];

internalField   nonuniform List<scalar> 
141075
(
-6.33367e-007
-6.33998e-007
-6.34106e-007
-6.34293e-007
-6.34396e-007
-6.34412e-007
-6.34376e-007
-6.34293e-007
-6.34162e-007
-6.33988e-007
-6.33777e-007
-6.33525e-007
-6.33223e-007
-6.32728e-007
-1.93091e-006
-1.93106e-006
-1.93053e-006
-1.93016e-006
-1.92982e-006
-1.92939e-006
-1.92884e-006
-1.92819e-006
-1.92742e-006
-1.92657e-006
-1.92566e-006
-1.92475e-006
-1.92398e-006
-1.92335e-006
-3.2631e-006
-3.26222e-006
-3.26085e-006
-3.25963e-006
-3.2585e-006
-3.25737e-006
-3.25616e-006
-3.25483e-006
-3.25333e-006
-3.2517e-006
-3.25e-006
-3.24838e-006
-3.24711e-006
-3.24629e-006
-4.59337e-006
-4.59204e-006
-4.59005e-006
-4.5881e-006
-4.58616e-006
-4.58419e-006
-4.58212e-006
-4.57993e-006
-4.5776e-006
-4.57514e-006
-4.57266e-006
-4.57033e-006
-4.56856e-006
-4.56751e-006
-5.92083e-006
-5.91901e-006
-5.91635e-006
-5.91384e-006
-5.9114e-006
-5.90885e-006
-5.90614e-006
-5.90324e-006
-5.90014e-006
-5.89689e-006
-5.89367e-006
-5.89071e-006
-5.88854e-006
-5.8874e-006
-7.24609e-006
-7.24374e-006
-7.24025e-006
-7.23705e-006
-7.23402e-006
-7.23091e-006
-7.22763e-006
-7.22411e-006
-7.22034e-006
-7.21638e-006
-7.21244e-006
-7.20883e-006
-7.20621e-006
-7.20492e-006
-8.56991e-006
-8.56714e-006
-8.56298e-006
-8.55907e-006
-8.55532e-006
-8.55153e-006
-8.54756e-006
-8.54336e-006
-8.53887e-006
-8.53416e-006
-8.52949e-006
-8.5252e-006
-8.52211e-006
-8.52066e-006
-9.89111e-006
-9.88793e-006
-9.88314e-006
-9.87861e-006
-9.87421e-006
-9.86972e-006
-9.86503e-006
-9.86008e-006
-9.85483e-006
-9.84936e-006
-9.84395e-006
-9.839e-006
-9.83547e-006
-9.83389e-006
-1.12091e-005
-1.12054e-005
-1.11999e-005
-1.11947e-005
-1.11897e-005
-1.11847e-005
-1.11794e-005
-1.11738e-005
-1.11679e-005
-1.11618e-005
-1.11557e-005
-1.11503e-005
-1.11464e-005
-1.11447e-005
-1.25243e-005
-1.25201e-005
-1.25137e-005
-1.25078e-005
-1.25022e-005
-1.24965e-005
-1.24906e-005
-1.24844e-005
-1.24779e-005
-1.24711e-005
-1.24644e-005
-1.24583e-005
-1.2454e-005
-1.24521e-005
-1.38364e-005
-1.38318e-005
-1.38247e-005
-1.38181e-005
-1.38119e-005
-1.38055e-005
-1.3799e-005
-1.37921e-005
-1.37849e-005
-1.37774e-005
-1.377e-005
-1.37632e-005
-1.37582e-005
-1.3756e-005
-1.51452e-005
-1.51401e-005
-1.51323e-005
-1.51251e-005
-1.51182e-005
-1.51113e-005
-1.51041e-005
-1.50966e-005
-1.50888e-005
-1.50807e-005
-1.50727e-005
-1.50653e-005
-1.50598e-005
-1.50572e-005
-1.64501e-005
-1.64445e-005
-1.6436e-005
-1.64282e-005
-1.64207e-005
-1.64131e-005
-1.64054e-005
-1.63974e-005
-1.6389e-005
-1.63805e-005
-1.6372e-005
-1.63642e-005
-1.63582e-005
-1.63551e-005
-1.77512e-005
-1.77451e-005
-1.77359e-005
-1.77273e-005
-1.77192e-005
-1.7711e-005
-1.77027e-005
-1.76941e-005
-1.76852e-005
-1.76761e-005
-1.76672e-005
-1.76588e-005
-1.76521e-005
-1.76484e-005
-1.90485e-005
-1.90419e-005
-1.90319e-005
-1.90227e-005
-1.90139e-005
-1.90051e-005
-1.89961e-005
-1.89869e-005
-1.89774e-005
-1.89678e-005
-1.89582e-005
-1.89492e-005
-1.89416e-005
-1.89372e-005
-2.03416e-005
-2.03345e-005
-2.03239e-005
-2.03139e-005
-2.03045e-005
-2.0295e-005
-2.02855e-005
-2.02757e-005
-2.02657e-005
-2.02555e-005
-2.02455e-005
-2.02358e-005
-2.02275e-005
-2.02223e-005
-2.16301e-005
-2.16225e-005
-2.16111e-005
-2.16005e-005
-2.15905e-005
-2.15804e-005
-2.15703e-005
-2.156e-005
-2.15496e-005
-2.1539e-005
-2.15286e-005
-2.15186e-005
-2.15095e-005
-2.15035e-005
-2.29136e-005
-2.29055e-005
-2.28934e-005
-2.28821e-005
-2.28714e-005
-2.28608e-005
-2.28501e-005
-2.28394e-005
-2.28285e-005
-2.28176e-005
-2.28068e-005
-2.27963e-005
-2.27865e-005
-2.27795e-005
-2.41921e-005
-2.41834e-005
-2.41705e-005
-2.41585e-005
-2.41472e-005
-2.41359e-005
-2.41246e-005
-2.41133e-005
-2.4102e-005
-2.40906e-005
-2.40793e-005
-2.40682e-005
-2.40575e-005
-2.40495e-005
-2.54654e-005
-2.54561e-005
-2.54424e-005
-2.54297e-005
-2.54176e-005
-2.54056e-005
-2.53937e-005
-2.53817e-005
-2.53698e-005
-2.53579e-005
-2.53461e-005
-2.53343e-005
-2.53227e-005
-2.53137e-005
-2.67331e-005
-2.67232e-005
-2.67087e-005
-2.66952e-005
-2.66824e-005
-2.66697e-005
-2.66571e-005
-2.66445e-005
-2.6632e-005
-2.66195e-005
-2.66072e-005
-2.65948e-005
-2.65822e-005
-2.65723e-005
-2.79953e-005
-2.79848e-005
-2.79694e-005
-2.79551e-005
-2.79415e-005
-2.79281e-005
-2.79148e-005
-2.79016e-005
-2.78884e-005
-2.78754e-005
-2.78626e-005
-2.78495e-005
-2.78361e-005
-2.78253e-005
-2.92519e-005
-2.92408e-005
-2.92246e-005
-2.92093e-005
-2.9195e-005
-2.91808e-005
-2.91667e-005
-2.91527e-005
-2.9139e-005
-2.91254e-005
-2.91119e-005
-2.90983e-005
-2.9084e-005
-2.90724e-005
-3.05027e-005
-3.0491e-005
-3.04738e-005
-3.04577e-005
-3.04425e-005
-3.04275e-005
-3.04126e-005
-3.03979e-005
-3.03834e-005
-3.03692e-005
-3.03551e-005
-3.03407e-005
-3.03257e-005
-3.03134e-005
-3.17479e-005
-3.17354e-005
-3.17171e-005
-3.17001e-005
-3.1684e-005
-3.16681e-005
-3.16524e-005
-3.1637e-005
-3.16217e-005
-3.16068e-005
-3.15919e-005
-3.15769e-005
-3.15613e-005
-3.15481e-005
-3.29876e-005
-3.29745e-005
-3.29551e-005
-3.2937e-005
-3.292e-005
-3.29032e-005
-3.28866e-005
-3.28702e-005
-3.28542e-005
-3.28384e-005
-3.28228e-005
-3.28069e-005
-3.27905e-005
-3.27773e-005
-3.42224e-005
-3.42085e-005
-3.41879e-005
-3.41688e-005
-3.41508e-005
-3.4133e-005
-3.41154e-005
-3.40981e-005
-3.40811e-005
-3.40645e-005
-3.4048e-005
-3.40313e-005
-3.4014e-005
-3.40004e-005
-3.54527e-005
-3.5438e-005
-3.54162e-005
-3.5396e-005
-3.53769e-005
-3.53581e-005
-3.53394e-005
-3.53211e-005
-3.53031e-005
-3.52854e-005
-3.52679e-005
-3.52503e-005
-3.52322e-005
-3.52182e-005
-3.6679e-005
-3.66634e-005
-3.66404e-005
-3.6619e-005
-3.65988e-005
-3.65788e-005
-3.65591e-005
-3.65396e-005
-3.65205e-005
-3.65017e-005
-3.64832e-005
-3.64645e-005
-3.64457e-005
-3.6431e-005
-3.7903e-005
-3.78858e-005
-3.78613e-005
-3.78385e-005
-3.78171e-005
-3.77959e-005
-3.77749e-005
-3.77543e-005
-3.77339e-005
-3.77139e-005
-3.76941e-005
-3.76744e-005
-3.76546e-005
-3.76395e-005
-3.91215e-005
-3.9104e-005
-3.90783e-005
-3.90544e-005
-3.90318e-005
-3.90094e-005
-3.89872e-005
-3.89653e-005
-3.89437e-005
-3.89224e-005
-3.89014e-005
-3.88805e-005
-3.88599e-005
-3.88443e-005
-4.03392e-005
-4.03207e-005
-4.02935e-005
-4.02682e-005
-4.02443e-005
-4.02206e-005
-4.01971e-005
-4.01738e-005
-4.01508e-005
-4.01281e-005
-4.01058e-005
-4.00837e-005
-4.00621e-005
-4.00462e-005
-4.15561e-005
-4.15364e-005
-4.15076e-005
-4.14808e-005
-4.14555e-005
-4.14303e-005
-4.14054e-005
-4.13806e-005
-4.13561e-005
-4.1332e-005
-4.13082e-005
-4.12847e-005
-4.12622e-005
-4.12459e-005
-4.27731e-005
-4.27522e-005
-4.27218e-005
-4.26934e-005
-4.26665e-005
-4.26398e-005
-4.26133e-005
-4.2587e-005
-4.25609e-005
-4.2535e-005
-4.25097e-005
-4.24847e-005
-4.24611e-005
-4.24444e-005
-4.39913e-005
-4.39692e-005
-4.39369e-005
-4.39068e-005
-4.38783e-005
-4.385e-005
-4.38218e-005
-4.37937e-005
-4.37659e-005
-4.37383e-005
-4.37111e-005
-4.36846e-005
-4.36597e-005
-4.36425e-005
-4.5212e-005
-4.51884e-005
-4.51542e-005
-4.51223e-005
-4.5092e-005
-4.50618e-005
-4.50318e-005
-4.50018e-005
-4.49721e-005
-4.49425e-005
-4.49135e-005
-4.48851e-005
-4.48588e-005
-4.48411e-005
-4.64362e-005
-4.6411e-005
-4.63747e-005
-4.63408e-005
-4.63086e-005
-4.62764e-005
-4.62443e-005
-4.62123e-005
-4.61805e-005
-4.61488e-005
-4.61176e-005
-4.60872e-005
-4.60593e-005
-4.6041e-005
-4.76652e-005
-4.76382e-005
-4.75996e-005
-4.75635e-005
-4.75292e-005
-4.74949e-005
-4.74606e-005
-4.74263e-005
-4.73921e-005
-4.73581e-005
-4.73245e-005
-4.72918e-005
-4.72622e-005
-4.72431e-005
-4.89006e-005
-4.88715e-005
-4.88303e-005
-4.87919e-005
-4.87553e-005
-4.87185e-005
-4.86817e-005
-4.86449e-005
-4.86082e-005
-4.85715e-005
-4.85352e-005
-4.85e-005
-4.84684e-005
-4.84486e-005
-5.01438e-005
-5.01125e-005
-5.00683e-005
-5.00272e-005
-4.9988e-005
-4.99485e-005
-4.9909e-005
-4.98694e-005
-4.98297e-005
-4.97901e-005
-4.97509e-005
-4.97128e-005
-4.9679e-005
-4.96584e-005
-5.13963e-005
-5.13624e-005
-5.13151e-005
-5.1271e-005
-5.12288e-005
-5.11863e-005
-5.11437e-005
-5.11009e-005
-5.1058e-005
-5.10151e-005
-5.09725e-005
-5.09313e-005
-5.08952e-005
-5.08739e-005
-5.26599e-005
-5.26231e-005
-5.25721e-005
-5.25246e-005
-5.24793e-005
-5.24334e-005
-5.23873e-005
-5.2341e-005
-5.22945e-005
-5.22478e-005
-5.22015e-005
-5.21568e-005
-5.21181e-005
-5.20962e-005
-5.39368e-005
-5.38966e-005
-5.38414e-005
-5.37902e-005
-5.37412e-005
-5.36916e-005
-5.36416e-005
-5.35914e-005
-5.35408e-005
-5.34899e-005
-5.34394e-005
-5.33907e-005
-5.33492e-005
-5.33267e-005
-5.5229e-005
-5.5185e-005
-5.51251e-005
-5.50697e-005
-5.50166e-005
-5.49626e-005
-5.49083e-005
-5.48536e-005
-5.47985e-005
-5.47428e-005
-5.46875e-005
-5.46344e-005
-5.45899e-005
-5.45668e-005
-5.65386e-005
-5.64902e-005
-5.64251e-005
-5.63648e-005
-5.63071e-005
-5.62483e-005
-5.6189e-005
-5.61293e-005
-5.60689e-005
-5.6008e-005
-5.59473e-005
-5.58892e-005
-5.58415e-005
-5.58181e-005
-5.78677e-005
-5.78142e-005
-5.77432e-005
-5.76775e-005
-5.76146e-005
-5.75504e-005
-5.74855e-005
-5.74201e-005
-5.7354e-005
-5.7287e-005
-5.72203e-005
-5.71566e-005
-5.71055e-005
-5.70822e-005
-5.92191e-005
-5.91598e-005
-5.90819e-005
-5.90101e-005
-5.89414e-005
-5.88711e-005
-5.88e-005
-5.87283e-005
-5.86556e-005
-5.85819e-005
-5.85084e-005
-5.84386e-005
-5.83839e-005
-5.83609e-005
-6.05955e-005
-6.05297e-005
-6.04441e-005
-6.03654e-005
-6.02899e-005
-6.02127e-005
-6.01346e-005
-6.00558e-005
-5.99758e-005
-5.98945e-005
-5.98135e-005
-5.97369e-005
-5.96783e-005
-5.9656e-005
-6.19996e-005
-6.19264e-005
-6.1832e-005
-6.17455e-005
-6.16626e-005
-6.15775e-005
-6.14915e-005
-6.14047e-005
-6.13164e-005
-6.12267e-005
-6.11372e-005
-6.10531e-005
-6.09903e-005
-6.09693e-005
-6.34341e-005
-6.33523e-005
-6.3248e-005
-6.31527e-005
-6.30615e-005
-6.29677e-005
-6.28728e-005
-6.2777e-005
-6.26795e-005
-6.25803e-005
-6.24813e-005
-6.23887e-005
-6.23216e-005
-6.23024e-005
-6.4902e-005
-6.48105e-005
-6.4695e-005
-6.45897e-005
-6.44892e-005
-6.43856e-005
-6.42809e-005
-6.41751e-005
-6.40673e-005
-6.39575e-005
-6.38479e-005
-6.37458e-005
-6.36739e-005
-6.3657e-005
-6.64065e-005
-6.6304e-005
-6.61759e-005
-6.60595e-005
-6.59485e-005
-6.5834e-005
-6.57183e-005
-6.56012e-005
-6.5482e-005
-6.53602e-005
-6.52387e-005
-6.5126e-005
-6.50489e-005
-6.50348e-005
-6.79502e-005
-6.78354e-005
-6.76931e-005
-6.75644e-005
-6.74416e-005
-6.73149e-005
-6.71869e-005
-6.70573e-005
-6.69253e-005
-6.67902e-005
-6.66554e-005
-6.65308e-005
-6.64478e-005
-6.64372e-005
-6.95358e-005
-6.94069e-005
-6.92487e-005
-6.91062e-005
-6.89705e-005
-6.88303e-005
-6.86886e-005
-6.85452e-005
-6.83988e-005
-6.8249e-005
-6.80993e-005
-6.79615e-005
-6.78721e-005
-6.78656e-005
-7.11654e-005
-7.10208e-005
-7.08449e-005
-7.0687e-005
-7.05369e-005
-7.03817e-005
-7.02249e-005
-7.00663e-005
-6.99042e-005
-6.9738e-005
-6.95718e-005
-6.94193e-005
-6.9323e-005
-6.93211e-005
-7.28409e-005
-7.26788e-005
-7.24832e-005
-7.23083e-005
-7.21423e-005
-7.19706e-005
-7.17972e-005
-7.16218e-005
-7.14424e-005
-7.12582e-005
-7.10738e-005
-7.09052e-005
-7.08012e-005
-7.08049e-005
-7.45632e-005
-7.43816e-005
-7.41643e-005
-7.39707e-005
-7.37872e-005
-7.35973e-005
-7.34057e-005
-7.3212e-005
-7.30136e-005
-7.28098e-005
-7.26055e-005
-7.24192e-005
-7.2307e-005
-7.23169e-005
-7.63329e-005
-7.61297e-005
-7.58883e-005
-7.56742e-005
-7.54718e-005
-7.52621e-005
-7.50507e-005
-7.48369e-005
-7.46181e-005
-7.43928e-005
-7.41669e-005
-7.39615e-005
-7.38406e-005
-7.38577e-005
-7.81496e-005
-7.79225e-005
-7.76547e-005
-7.7418e-005
-7.71949e-005
-7.69636e-005
-7.67308e-005
-7.64953e-005
-7.62541e-005
-7.60056e-005
-7.57563e-005
-7.55302e-005
-7.54e-005
-7.54254e-005
-8.00129e-005
-7.97596e-005
-7.94629e-005
-7.92017e-005
-7.89559e-005
-7.87012e-005
-7.8445e-005
-7.81861e-005
-7.79209e-005
-7.76473e-005
-7.73727e-005
-7.71243e-005
-7.69845e-005
-7.70196e-005
-8.19207e-005
-8.16389e-005
-8.13108e-005
-8.10231e-005
-8.07528e-005
-8.04728e-005
-8.01914e-005
-7.99073e-005
-7.96161e-005
-7.93156e-005
-7.90139e-005
-7.87417e-005
-7.85918e-005
-7.8638e-005
-8.38703e-005
-8.35574e-005
-8.31953e-005
-8.2879e-005
-8.25826e-005
-8.22756e-005
-8.19673e-005
-8.16561e-005
-8.13373e-005
-8.1008e-005
-8.06773e-005
-8.03797e-005
-8.02195e-005
-8.02783e-005
-8.58581e-005
-8.55117e-005
-8.51129e-005
-8.4766e-005
-8.44416e-005
-8.41057e-005
-8.37688e-005
-8.34291e-005
-8.30809e-005
-8.2721e-005
-8.23596e-005
-8.20352e-005
-8.18645e-005
-8.19376e-005
-8.788e-005
-8.74977e-005
-8.70597e-005
-8.66799e-005
-8.63257e-005
-8.59591e-005
-8.55919e-005
-8.52218e-005
-8.48427e-005
-8.44506e-005
-8.40568e-005
-8.37042e-005
-8.3523e-005
-8.36121e-005
-8.99301e-005
-8.95095e-005
-8.90299e-005
-8.86154e-005
-8.82298e-005
-8.78306e-005
-8.74314e-005
-8.70295e-005
-8.66178e-005
-8.61919e-005
-8.57641e-005
-8.53821e-005
-8.51905e-005
-8.52974e-005
-9.20011e-005
-9.15399e-005
-9.10163e-005
-9.05654e-005
-9.01468e-005
-8.97138e-005
-8.92811e-005
-8.8846e-005
-8.84004e-005
-8.79394e-005
-8.74762e-005
-8.70638e-005
-8.68619e-005
-8.69887e-005
-9.40852e-005
-9.35813e-005
-9.30113e-005
-9.25222e-005
-9.20693e-005
-9.16011e-005
-9.11339e-005
-9.06646e-005
-9.0184e-005
-8.96867e-005
-8.9187e-005
-8.87434e-005
-8.85316e-005
-8.86802e-005
-9.61736e-005
-9.56252e-005
-9.5007e-005
-9.44782e-005
-9.39895e-005
-9.34848e-005
-9.29819e-005
-9.24773e-005
-9.1961e-005
-9.14266e-005
-9.08898e-005
-9.04144e-005
-9.01934e-005
-9.03657e-005
-9.82555e-005
-9.7661e-005
-9.69931e-005
-9.64236e-005
-9.58984e-005
-9.53562e-005
-9.48169e-005
-9.42763e-005
-9.37236e-005
-9.31515e-005
-9.2577e-005
-9.20697e-005
-9.18403e-005
-9.20382e-005
-0.000100319
-9.96772e-005
-9.89583e-005
-9.83473e-005
-9.77851e-005
-9.72051e-005
-9.66289e-005
-9.60522e-005
-9.54628e-005
-9.48529e-005
-9.42406e-005
-9.37016e-005
-9.34647e-005
-9.369e-005
-0.000102352
-0.000101662
-0.000100891
-0.000100238
-9.96383e-005
-9.90202e-005
-9.84073e-005
-9.77945e-005
-9.71688e-005
-9.65214e-005
-9.58717e-005
-9.53017e-005
-9.50585e-005
-9.53127e-005
-0.000104341
-0.000103602
-0.000102779
-0.000102083
-0.000101446
-0.00010079
-0.000100141
-9.94923e-005
-9.88308e-005
-9.81468e-005
-9.74607e-005
-9.68605e-005
-9.66124e-005
-9.6897e-005
-0.00010627
-0.000105483
-0.000104608
-0.000103871
-0.000103197
-0.000102503
-0.000101818
-0.000101134
-0.000100438
-9.97185e-005
-9.89972e-005
-9.83684e-005
-9.8117e-005
-9.8433e-005
-0.000108124
-0.00010729
-0.000106364
-0.000105586
-0.000104876
-0.000104146
-0.000103425
-0.000102709
-0.000101979
-0.000101226
-0.000100471
-9.98154e-005
-9.95623e-005
-9.99103e-005
-0.000109886
-0.000109005
-0.00010803
-0.000107212
-0.000106468
-0.000105703
-0.00010495
-0.000104202
-0.000103441
-0.000102656
-0.00010187
-0.000101191
-0.000100938
-0.000101318
-0.00011154
-0.000110615
-0.000109592
-0.000108737
-0.00010796
-0.000107163
-0.000106379
-0.000105601
-0.000104812
-0.000103998
-0.000103184
-0.000102482
-0.000102232
-0.000102645
-0.000113069
-0.000112103
-0.000111037
-0.000110146
-0.000109339
-0.000108511
-0.000107698
-0.000106894
-0.000106079
-0.000105239
-0.0001044
-0.00010368
-0.000103434
-0.000103879
-0.000114459
-0.000113455
-0.000112348
-0.000111426
-0.000110591
-0.000109736
-0.000108898
-0.000108069
-0.000107231
-0.000106369
-0.00010551
-0.000104775
-0.000104535
-0.000105012
-0.000115695
-0.000114657
-0.000113514
-0.000112564
-0.000111705
-0.000110827
-0.000109966
-0.000109118
-0.000108261
-0.00010738
-0.000106503
-0.000105757
-0.000105527
-0.000106034
-0.000116767
-0.000115701
-0.000114528
-0.000113554
-0.000112675
-0.000111777
-0.000110898
-0.000110034
-0.000109162
-0.000108267
-0.000107377
-0.000106624
-0.000106405
-0.000106941
-0.00011767
-0.000116581
-0.000115383
-0.00011439
-0.000113496
-0.000112582
-0.00011169
-0.000110814
-0.000109931
-0.000109027
-0.00010813
-0.000107375
-0.000107169
-0.000107733
-0.000118395
-0.000117291
-0.000116075
-0.000115069
-0.000114164
-0.00011324
-0.00011234
-0.000111457
-0.00011057
-0.000109663
-0.000108764
-0.000108013
-0.000107822
-0.000108411
-0.000118938
-0.000117825
-0.0001166
-0.000115587
-0.000114677
-0.000113748
-0.000112845
-0.000111962
-0.000111076
-0.000110173
-0.00010928
-0.000108538
-0.000108368
-0.000108979
-0.000119295
-0.00011818
-0.000116954
-0.000115941
-0.000115033
-0.000114107
-0.000113208
-0.00011233
-0.000111452
-0.000110559
-0.000109679
-0.000108953
-0.000108805
-0.000109436
-0.000119467
-0.000118359
-0.000117141
-0.000116136
-0.000115236
-0.00011432
-0.000113431
-0.000112564
-0.0001117
-0.000110823
-0.000109961
-0.000109256
-0.000109132
-0.000109779
-0.000119459
-0.000118368
-0.000117166
-0.000116175
-0.000115289
-0.000114388
-0.000113515
-0.000112666
-0.000111821
-0.000110966
-0.000110128
-0.000109447
-0.000109346
-0.000110003
-0.000119275
-0.000118209
-0.000117034
-0.000116065
-0.000115198
-0.000114317
-0.000113465
-0.000112638
-0.000111818
-0.000110989
-0.000110179
-0.000109527
-0.000109449
-0.00011011
-0.000118914
-0.000117884
-0.000116746
-0.000115807
-0.000114967
-0.000114113
-0.000113287
-0.000112487
-0.000111695
-0.000110896
-0.00011012
-0.0001095
-0.000109444
-0.000110104
-0.000118389
-0.000117402
-0.00011631
-0.000115408
-0.000114603
-0.000113783
-0.00011299
-0.000112222
-0.000111462
-0.000110698
-0.000109958
-0.000109373
-0.000109338
-0.00010999
-0.000117718
-0.000116784
-0.000115748
-0.00011489
-0.000114123
-0.000113341
-0.000112586
-0.000111854
-0.000111131
-0.000110406
-0.000109706
-0.000109157
-0.00010914
-0.000109775
-0.000116916
-0.000116044
-0.000115074
-0.000114267
-0.000113543
-0.000112805
-0.00011209
-0.000111398
-0.000110716
-0.000110033
-0.000109375
-0.000108864
-0.000108862
-0.000109472
-0.000116001
-0.000115201
-0.000114306
-0.000113559
-0.000112885
-0.000112196
-0.000111527
-0.000110878
-0.000110237
-0.000109597
-0.000108982
-0.000108508
-0.000108514
-0.00010909
-0.000115001
-0.000114279
-0.000113467
-0.000112786
-0.000112168
-0.000111534
-0.000110916
-0.000110313
-0.000109717
-0.00010912
-0.000108548
-0.000108108
-0.000108115
-0.000108645
-0.000113952
-0.000113315
-0.000112594
-0.000111982
-0.000111422
-0.000110846
-0.00011028
-0.000109726
-0.000109175
-0.000108623
-0.000108094
-0.000107686
-0.000107689
-0.000108163
-0.000112892
-0.000112347
-0.000111724
-0.000111186
-0.000110686
-0.000110167
-0.000109653
-0.000109146
-0.000108639
-0.00010813
-0.000107643
-0.000107268
-0.000107263
-0.000107674
-0.000111868
-0.000111417
-0.000110892
-0.000110428
-0.000109988
-0.000109526
-0.000109063
-0.0001086
-0.000108134
-0.000107666
-0.000107218
-0.000106873
-0.000106854
-0.000107194
-0.000110951
-0.000110595
-0.000110168
-0.000109772
-0.000109385
-0.000108972
-0.000108549
-0.00010812
-0.000107686
-0.000107251
-0.000106839
-0.000106522
-0.000106487
-0.000106752
-0.000110213
-0.000109941
-0.000109596
-0.000109257
-0.000108913
-0.000108538
-0.000108146
-0.000107739
-0.000107323
-0.000106908
-0.000106518
-0.000106219
-0.000106164
-0.000106356
-0.000109763
-0.000109555
-0.000109256
-0.000108929
-0.000108578
-0.000108197
-0.000107795
-0.000107381
-0.000106964
-0.000106557
-0.000106187
-0.000105914
-0.000105864
-0.000106015
-6.32185e-007
-6.32921e-007
-6.33099e-007
-6.33302e-007
-6.33453e-007
-6.33529e-007
-6.33553e-007
-6.3353e-007
-6.33458e-007
-6.33346e-007
-6.33203e-007
-6.33025e-007
-6.32791e-007
-6.32356e-007
-1.92755e-006
-1.92788e-006
-1.92753e-006
-1.92725e-006
-1.92696e-006
-1.92661e-006
-1.9262e-006
-1.92571e-006
-1.92515e-006
-1.92451e-006
-1.92383e-006
-1.92315e-006
-1.92251e-006
-1.92186e-006
-3.25772e-006
-3.25696e-006
-3.25584e-006
-3.25485e-006
-3.25393e-006
-3.253e-006
-3.25203e-006
-3.25097e-006
-3.2498e-006
-3.24854e-006
-3.24724e-006
-3.24599e-006
-3.24488e-006
-3.24398e-006
-4.58587e-006
-4.58465e-006
-4.5829e-006
-4.58129e-006
-4.57976e-006
-4.57819e-006
-4.57653e-006
-4.57478e-006
-4.57291e-006
-4.57095e-006
-4.569e-006
-4.56715e-006
-4.56555e-006
-4.56432e-006
-5.91162e-006
-5.90997e-006
-5.90758e-006
-5.90539e-006
-5.90332e-006
-5.90124e-006
-5.89905e-006
-5.89673e-006
-5.89426e-006
-5.89168e-006
-5.88914e-006
-5.88676e-006
-5.88476e-006
-5.88328e-006
-7.23508e-006
-7.23297e-006
-7.22993e-006
-7.2271e-006
-7.22444e-006
-7.22179e-006
-7.21905e-006
-7.21619e-006
-7.21317e-006
-7.21004e-006
-7.20695e-006
-7.20408e-006
-7.20166e-006
-7.19989e-006
-8.55678e-006
-8.55429e-006
-8.55067e-006
-8.54729e-006
-8.54408e-006
-8.54086e-006
-8.53754e-006
-8.53408e-006
-8.53046e-006
-8.52673e-006
-8.52307e-006
-8.51967e-006
-8.51682e-006
-8.51475e-006
-9.87591e-006
-9.873e-006
-9.86876e-006
-9.86482e-006
-9.86108e-006
-9.85731e-006
-9.85343e-006
-9.84938e-006
-9.84516e-006
-9.84082e-006
-9.83658e-006
-9.83266e-006
-9.82938e-006
-9.82701e-006
-1.11921e-005
-1.11887e-005
-1.11838e-005
-1.11792e-005
-1.11749e-005
-1.11706e-005
-1.11662e-005
-1.11616e-005
-1.11568e-005
-1.1152e-005
-1.11473e-005
-1.1143e-005
-1.11394e-005
-1.11368e-005
-1.25052e-005
-1.25014e-005
-1.24958e-005
-1.24907e-005
-1.24857e-005
-1.24808e-005
-1.24758e-005
-1.24707e-005
-1.24654e-005
-1.246e-005
-1.24548e-005
-1.245e-005
-1.2446e-005
-1.24431e-005
-1.38152e-005
-1.3811e-005
-1.38048e-005
-1.3799e-005
-1.37935e-005
-1.3788e-005
-1.37825e-005
-1.37768e-005
-1.37709e-005
-1.37649e-005
-1.37591e-005
-1.37537e-005
-1.37491e-005
-1.37458e-005
-1.51218e-005
-1.51171e-005
-1.51103e-005
-1.51039e-005
-1.50978e-005
-1.50918e-005
-1.50858e-005
-1.50795e-005
-1.50731e-005
-1.50666e-005
-1.50603e-005
-1.50544e-005
-1.50492e-005
-1.50455e-005
-1.64246e-005
-1.64195e-005
-1.6412e-005
-1.6405e-005
-1.63984e-005
-1.63918e-005
-1.63851e-005
-1.63784e-005
-1.63715e-005
-1.63645e-005
-1.63577e-005
-1.63514e-005
-1.63457e-005
-1.63416e-005
-1.77234e-005
-1.77179e-005
-1.77097e-005
-1.77021e-005
-1.76949e-005
-1.76877e-005
-1.76805e-005
-1.76732e-005
-1.76657e-005
-1.76582e-005
-1.76509e-005
-1.7644e-005
-1.76376e-005
-1.76328e-005
-1.90182e-005
-1.90123e-005
-1.90034e-005
-1.89952e-005
-1.89874e-005
-1.89796e-005
-1.89718e-005
-1.89639e-005
-1.89558e-005
-1.89477e-005
-1.89398e-005
-1.89321e-005
-1.8925e-005
-1.89194e-005
-2.03089e-005
-2.03025e-005
-2.0293e-005
-2.02842e-005
-2.02758e-005
-2.02674e-005
-2.0259e-005
-2.02505e-005
-2.02418e-005
-2.02332e-005
-2.02246e-005
-2.02163e-005
-2.02083e-005
-2.02021e-005
-2.15948e-005
-2.1588e-005
-2.15779e-005
-2.15684e-005
-2.15595e-005
-2.15505e-005
-2.15415e-005
-2.15325e-005
-2.15233e-005
-2.15142e-005
-2.15051e-005
-2.14962e-005
-2.14875e-005
-2.14804e-005
-2.28758e-005
-2.28685e-005
-2.28577e-005
-2.28476e-005
-2.2838e-005
-2.28285e-005
-2.2819e-005
-2.28094e-005
-2.27998e-005
-2.27901e-005
-2.27805e-005
-2.2771e-005
-2.27614e-005
-2.27535e-005
-2.41517e-005
-2.41439e-005
-2.41324e-005
-2.41217e-005
-2.41114e-005
-2.41013e-005
-2.40911e-005
-2.40809e-005
-2.40707e-005
-2.40604e-005
-2.40502e-005
-2.40399e-005
-2.40294e-005
-2.40206e-005
-2.54222e-005
-2.54139e-005
-2.54017e-005
-2.53903e-005
-2.53794e-005
-2.53686e-005
-2.53578e-005
-2.53469e-005
-2.5336e-005
-2.53251e-005
-2.53141e-005
-2.53031e-005
-2.52915e-005
-2.52818e-005
-2.66872e-005
-2.66784e-005
-2.66655e-005
-2.66533e-005
-2.66418e-005
-2.66303e-005
-2.66187e-005
-2.66072e-005
-2.65956e-005
-2.6584e-005
-2.65724e-005
-2.65606e-005
-2.6548e-005
-2.65374e-005
-2.79468e-005
-2.79374e-005
-2.79237e-005
-2.79108e-005
-2.78985e-005
-2.78863e-005
-2.7874e-005
-2.78618e-005
-2.78496e-005
-2.78374e-005
-2.78251e-005
-2.78125e-005
-2.7799e-005
-2.77875e-005
-2.92006e-005
-2.91907e-005
-2.91762e-005
-2.91626e-005
-2.91495e-005
-2.91365e-005
-2.91236e-005
-2.91106e-005
-2.90977e-005
-2.90848e-005
-2.90719e-005
-2.90586e-005
-2.90442e-005
-2.90319e-005
-3.04487e-005
-3.04382e-005
-3.04228e-005
-3.04083e-005
-3.03945e-005
-3.03808e-005
-3.03671e-005
-3.03534e-005
-3.03399e-005
-3.03263e-005
-3.03127e-005
-3.02987e-005
-3.02835e-005
-3.02705e-005
-3.16911e-005
-3.168e-005
-3.16637e-005
-3.16484e-005
-3.16337e-005
-3.16192e-005
-3.16047e-005
-3.15903e-005
-3.1576e-005
-3.15618e-005
-3.15475e-005
-3.15327e-005
-3.15168e-005
-3.15033e-005
-3.29282e-005
-3.29164e-005
-3.28991e-005
-3.28828e-005
-3.28673e-005
-3.28519e-005
-3.28366e-005
-3.28214e-005
-3.28064e-005
-3.27914e-005
-3.27765e-005
-3.27611e-005
-3.27444e-005
-3.27303e-005
-3.41602e-005
-3.41477e-005
-3.41294e-005
-3.41121e-005
-3.40957e-005
-3.40794e-005
-3.40632e-005
-3.40471e-005
-3.40313e-005
-3.40156e-005
-3.39999e-005
-3.39837e-005
-3.39664e-005
-3.39517e-005
-3.53876e-005
-3.53743e-005
-3.5355e-005
-3.53367e-005
-3.53193e-005
-3.5302e-005
-3.52849e-005
-3.52679e-005
-3.52511e-005
-3.52346e-005
-3.5218e-005
-3.52012e-005
-3.51832e-005
-3.51679e-005
-3.66108e-005
-3.65968e-005
-3.65763e-005
-3.65569e-005
-3.65385e-005
-3.65202e-005
-3.6502e-005
-3.64841e-005
-3.64663e-005
-3.64488e-005
-3.64315e-005
-3.64137e-005
-3.63951e-005
-3.63793e-005
-3.78306e-005
-3.78156e-005
-3.77939e-005
-3.77734e-005
-3.77539e-005
-3.77345e-005
-3.77152e-005
-3.76962e-005
-3.76775e-005
-3.7659e-005
-3.76407e-005
-3.76222e-005
-3.76027e-005
-3.75864e-005
-3.90468e-005
-3.9031e-005
-3.9008e-005
-3.89864e-005
-3.89657e-005
-3.89452e-005
-3.89248e-005
-3.89047e-005
-3.88849e-005
-3.88654e-005
-3.88462e-005
-3.88268e-005
-3.88067e-005
-3.87899e-005
-4.0261e-005
-4.02443e-005
-4.02199e-005
-4.0197e-005
-4.01751e-005
-4.01533e-005
-4.01317e-005
-4.01105e-005
-4.00895e-005
-4.00689e-005
-4.00487e-005
-4.00286e-005
-4.00078e-005
-3.99906e-005
-4.14739e-005
-4.14561e-005
-4.14303e-005
-4.1406e-005
-4.13828e-005
-4.13597e-005
-4.13368e-005
-4.13143e-005
-4.12921e-005
-4.12704e-005
-4.12492e-005
-4.12281e-005
-4.12067e-005
-4.1189e-005
-4.26865e-005
-4.26676e-005
-4.26402e-005
-4.26145e-005
-4.25899e-005
-4.25654e-005
-4.25411e-005
-4.25172e-005
-4.24938e-005
-4.24708e-005
-4.24484e-005
-4.24264e-005
-4.24043e-005
-4.23861e-005
-4.38999e-005
-4.38797e-005
-4.38507e-005
-4.38234e-005
-4.37973e-005
-4.37713e-005
-4.37456e-005
-4.37202e-005
-4.36953e-005
-4.3671e-005
-4.36474e-005
-4.36243e-005
-4.36013e-005
-4.35826e-005
-4.5115e-005
-4.50935e-005
-4.50627e-005
-4.50337e-005
-4.50059e-005
-4.49783e-005
-4.49509e-005
-4.49239e-005
-4.48975e-005
-4.48717e-005
-4.48468e-005
-4.48226e-005
-4.47986e-005
-4.47793e-005
-4.63329e-005
-4.63099e-005
-4.62771e-005
-4.62463e-005
-4.62167e-005
-4.61873e-005
-4.61581e-005
-4.61294e-005
-4.61012e-005
-4.60739e-005
-4.60475e-005
-4.60221e-005
-4.59971e-005
-4.59772e-005
-4.75549e-005
-4.75301e-005
-4.74952e-005
-4.74624e-005
-4.74309e-005
-4.73994e-005
-4.73682e-005
-4.73375e-005
-4.73076e-005
-4.72785e-005
-4.72505e-005
-4.72237e-005
-4.71976e-005
-4.71771e-005
-4.87821e-005
-4.87555e-005
-4.87181e-005
-4.86831e-005
-4.86494e-005
-4.86157e-005
-4.85824e-005
-4.85496e-005
-4.85175e-005
-4.84865e-005
-4.84568e-005
-4.84286e-005
-4.84014e-005
-4.83802e-005
-5.00161e-005
-4.99872e-005
-4.99472e-005
-4.99097e-005
-4.98735e-005
-4.98374e-005
-4.98016e-005
-4.97664e-005
-4.97322e-005
-4.9699e-005
-4.96676e-005
-4.96378e-005
-4.96095e-005
-4.95878e-005
-5.12581e-005
-5.12268e-005
-5.11837e-005
-5.11434e-005
-5.11046e-005
-5.10657e-005
-5.10271e-005
-5.09894e-005
-5.09526e-005
-5.09173e-005
-5.08838e-005
-5.08525e-005
-5.08233e-005
-5.08012e-005
-5.25098e-005
-5.24757e-005
-5.24292e-005
-5.23858e-005
-5.23439e-005
-5.23019e-005
-5.22604e-005
-5.22197e-005
-5.21803e-005
-5.21425e-005
-5.2107e-005
-5.20741e-005
-5.2044e-005
-5.20216e-005
-5.37731e-005
-5.37358e-005
-5.36854e-005
-5.36384e-005
-5.35931e-005
-5.35477e-005
-5.35028e-005
-5.34589e-005
-5.34166e-005
-5.33761e-005
-5.33384e-005
-5.33039e-005
-5.3273e-005
-5.32506e-005
-5.50499e-005
-5.50089e-005
-5.49541e-005
-5.49032e-005
-5.4854e-005
-5.48047e-005
-5.4756e-005
-5.47085e-005
-5.46629e-005
-5.46195e-005
-5.45795e-005
-5.45435e-005
-5.4512e-005
-5.44898e-005
-5.63419e-005
-5.62967e-005
-5.62369e-005
-5.61816e-005
-5.61281e-005
-5.60743e-005
-5.60214e-005
-5.597e-005
-5.59207e-005
-5.58742e-005
-5.58317e-005
-5.57942e-005
-5.57624e-005
-5.57409e-005
-5.76512e-005
-5.76012e-005
-5.75357e-005
-5.74753e-005
-5.74169e-005
-5.73583e-005
-5.73006e-005
-5.72448e-005
-5.71915e-005
-5.71416e-005
-5.70965e-005
-5.70576e-005
-5.7026e-005
-5.70056e-005
-5.89802e-005
-5.89246e-005
-5.88528e-005
-5.87867e-005
-5.87227e-005
-5.86585e-005
-5.85955e-005
-5.85348e-005
-5.84772e-005
-5.84236e-005
-5.83758e-005
-5.83357e-005
-5.83047e-005
-5.8286e-005
-6.03313e-005
-6.02694e-005
-6.01902e-005
-6.01177e-005
-6.00476e-005
-5.99771e-005
-5.99082e-005
-5.9842e-005
-5.97795e-005
-5.9722e-005
-5.96714e-005
-5.96302e-005
-5.96003e-005
-5.9584e-005
-6.17067e-005
-6.16376e-005
-6.15502e-005
-6.14704e-005
-6.13933e-005
-6.13159e-005
-6.12403e-005
-6.11681e-005
-6.11003e-005
-6.10384e-005
-6.0985e-005
-6.09429e-005
-6.09147e-005
-6.09016e-005
-6.31091e-005
-6.30317e-005
-6.2935e-005
-6.2847e-005
-6.27621e-005
-6.26769e-005
-6.25939e-005
-6.25149e-005
-6.24413e-005
-6.23747e-005
-6.23183e-005
-6.22755e-005
-6.22497e-005
-6.22406e-005
-6.45411e-005
-6.44544e-005
-6.4347e-005
-6.42499e-005
-6.41563e-005
-6.40623e-005
-6.3971e-005
-6.38846e-005
-6.38045e-005
-6.37329e-005
-6.36734e-005
-6.36301e-005
-6.36073e-005
-6.36032e-005
-6.60053e-005
-6.59081e-005
-6.57888e-005
-6.56815e-005
-6.5578e-005
-6.54742e-005
-6.53739e-005
-6.52792e-005