/*--------------------------------*- C++ -*----------------------------------*\
| =========                 |                                                 |
| \\      /  F ield         | OpenFOAM: The Open Source CFD Toolbox           |
|  \\    /   O peration     | Version:  5.x                                   |
|   \\  /    A nd           | Web:      www.OpenFOAM.org                      |
|    \\/     M anipulation  |                                                 |
\*---------------------------------------------------------------------------*/
/*   Windows 32 and 64 bit porting by blueCAPE: http://www.bluecape.com.pt   *\
|  Based on Windows porting (2.0.x v4) by Symscape: http://www.symscape.com   |
\*---------------------------------------------------------------------------*/
FoamFile
{
    version     2.0;
    format      ascii;
    class       volScalarField;
    location    "1";
    object      p;
}
// * * * * * * * * * * * * * * * * * * * * * * * * * * * * * * * * * * * * * //

dimensions      [0 2 -2 0 0 0 0];

internalField   nonuniform List<scalar> 
141075
(
2.35652e-007
2.35783e-007
2.36135e-007
2.36279e-007
2.3647e-007
2.36697e-007
2.36917e-007
2.37132e-007
2.37321e-007
2.37476e-007
2.37612e-007
2.37735e-007
2.37905e-007
2.38154e-007
7.23072e-007
7.23734e-007
7.24801e-007
7.25762e-007
7.26664e-007
7.27487e-007
7.28191e-007
7.28792e-007
7.29315e-007
7.2978e-007
7.30174e-007
7.3048e-007
7.30825e-007
7.31264e-007
1.23021e-006
1.23141e-006
1.2329e-006
1.23435e-006
1.23576e-006
1.23712e-006
1.2384e-006
1.23958e-006
1.24065e-006
1.24159e-006
1.24239e-006
1.2431e-006
1.24385e-006
1.24449e-006
1.73702e-006
1.73899e-006
1.74188e-006
1.7442e-006
1.74608e-006
1.74781e-006
1.74943e-006
1.75093e-006
1.75228e-006
1.75345e-006
1.75443e-006
1.75532e-006
1.75628e-006
1.75699e-006
2.23937e-006
2.24151e-006
2.24481e-006
2.24774e-006
2.25034e-006
2.25267e-006
2.25474e-006
2.25656e-006
2.25814e-006
2.25951e-006
2.2607e-006
2.26185e-006
2.2631e-006
2.26405e-006
2.74384e-006
2.74642e-006
2.75034e-006
2.75381e-006
2.75692e-006
2.75977e-006
2.76237e-006
2.76471e-006
2.76679e-006
2.76863e-006
2.77025e-006
2.77176e-006
2.77347e-006
2.77465e-006
3.25098e-006
3.25408e-006
3.25878e-006
3.26288e-006
3.2665e-006
3.26985e-006
3.27292e-006
3.27571e-006
3.2782e-006
3.2804e-006
3.28235e-006
3.28418e-006
3.28616e-006
3.28775e-006
3.76038e-006
3.764e-006
3.76951e-006
3.77431e-006
3.77855e-006
3.78247e-006
3.78609e-006
3.78939e-006
3.79236e-006
3.79501e-006
3.79738e-006
3.79969e-006
3.80224e-006
3.80429e-006
4.27203e-006
4.27613e-006
4.28242e-006
4.28793e-006
4.29286e-006
4.29745e-006
4.30172e-006
4.30566e-006
4.30929e-006
4.31265e-006
4.31583e-006
4.31904e-006
4.32257e-006
4.32537e-006
4.78658e-006
4.79117e-006
4.79821e-006
4.80441e-006
4.81e-006
4.81525e-006
4.8202e-006
4.82485e-006
4.82923e-006
4.83337e-006
4.83735e-006
4.84139e-006
4.8458e-006
4.84935e-006
5.30461e-006
5.30972e-006
5.31757e-006
5.32451e-006
5.33079e-006
5.33675e-006
5.34243e-006
5.34782e-006
5.35293e-006
5.35777e-006
5.36243e-006
5.36717e-006
5.37244e-006
5.37685e-006
5.82621e-006
5.83179e-006
5.84036e-006
5.84802e-006
5.85506e-006
5.8618e-006
5.86831e-006
5.87456e-006
5.88059e-006
5.88644e-006
5.89222e-006
5.89825e-006
5.90502e-006
5.91074e-006
6.3515e-006
6.35755e-006
6.36679e-006
6.37509e-006
6.38277e-006
6.39024e-006
6.39757e-006
6.4048e-006
6.41197e-006
6.41915e-006
6.42647e-006
6.4342e-006
6.44287e-006
6.45023e-006
6.88082e-006
6.88728e-006
6.89709e-006
6.90603e-006
6.91439e-006
6.92262e-006
6.93083e-006
6.93905e-006
6.94737e-006
6.95583e-006
6.96457e-006
6.97388e-006
6.98439e-006
6.99345e-006
7.41536e-006
7.42222e-006
7.43257e-006
7.44212e-006
7.45118e-006
7.46021e-006
7.46931e-006
7.47853e-006
7.48795e-006
7.49765e-006
7.50778e-006
7.51868e-006
7.53112e-006
7.54208e-006
7.95632e-006
7.96362e-006
7.97454e-006
7.98472e-006
7.99445e-006
8.00425e-006
8.01426e-006
8.02455e-006
8.03523e-006
8.0464e-006
8.05822e-006
8.07106e-006
8.08581e-006
8.0989e-006
8.50435e-006
8.51208e-006
8.52356e-006
8.5344e-006
8.5449e-006
8.55558e-006
8.56662e-006
8.57813e-006
8.59024e-006
8.60308e-006
8.61681e-006
8.6318e-006
8.64897e-006
8.66421e-006
9.06033e-006
9.06852e-006
9.08063e-006
9.09218e-006
9.10348e-006
9.11508e-006
9.12718e-006
9.13991e-006
9.1534e-006
9.16781e-006
9.1833e-006
9.2002e-006
9.21954e-006
9.2367e-006
9.62499e-006
9.63371e-006
9.64654e-006
9.65886e-006
9.67096e-006
9.68345e-006
9.69652e-006
9.71032e-006
9.72499e-006
9.74069e-006
9.75757e-006
9.776e-006
9.79707e-006
9.81579e-006
1.01986e-005
1.02079e-005
1.02215e-005
1.02346e-005
1.02475e-005
1.02609e-005
1.02749e-005
1.02896e-005
1.03053e-005
1.03221e-005
1.03401e-005
1.03598e-005
1.03823e-005
1.04023e-005
1.07808e-005
1.07908e-005
1.08053e-005
1.08193e-005
1.08331e-005
1.08473e-005
1.08622e-005
1.08779e-005
1.08946e-005
1.09124e-005
1.09315e-005
1.09522e-005
1.09758e-005
1.09968e-005
1.13711e-005
1.13818e-005
1.13974e-005
1.14124e-005
1.14271e-005
1.14423e-005
1.14582e-005
1.14749e-005
1.14925e-005
1.15113e-005
1.15313e-005
1.1553e-005
1.15774e-005
1.15991e-005
1.19684e-005
1.19798e-005
1.19966e-005
1.20127e-005
1.20285e-005
1.20447e-005
1.20616e-005
1.20793e-005
1.20979e-005
1.21175e-005
1.21383e-005
1.21606e-005
1.21856e-005
1.22076e-005
1.25712e-005
1.25835e-005
1.26015e-005
1.26188e-005
1.26357e-005
1.26531e-005
1.2671e-005
1.26896e-005
1.2709e-005
1.27294e-005
1.27508e-005
1.27735e-005
1.27986e-005
1.28205e-005
1.31778e-005
1.3191e-005
1.32104e-005
1.3229e-005
1.32471e-005
1.32656e-005
1.32845e-005
1.33041e-005
1.33243e-005
1.33453e-005
1.3367e-005
1.33899e-005
1.34148e-005
1.34362e-005
1.37861e-005
1.38003e-005
1.38213e-005
1.38413e-005
1.38606e-005
1.38803e-005
1.39003e-005
1.39209e-005
1.39419e-005
1.39634e-005
1.39855e-005
1.40084e-005
1.40328e-005
1.40533e-005
1.4394e-005
1.44092e-005
1.44318e-005
1.44533e-005
1.4474e-005
1.44949e-005
1.45162e-005
1.45377e-005
1.45596e-005
1.45817e-005
1.4604e-005
1.46269e-005
1.46506e-005
1.46701e-005
1.49988e-005
1.50152e-005
1.50396e-005
1.50627e-005
1.50848e-005
1.51071e-005
1.51295e-005
1.51521e-005
1.51748e-005
1.51975e-005
1.52202e-005
1.5243e-005
1.5266e-005
1.52841e-005
1.55978e-005
1.56153e-005
1.56415e-005
1.56662e-005
1.56898e-005
1.57134e-005
1.57371e-005
1.57608e-005
1.57844e-005
1.58078e-005
1.58309e-005
1.58537e-005
1.58759e-005
1.58926e-005
1.61875e-005
1.62062e-005
1.62343e-005
1.62605e-005
1.62855e-005
1.63105e-005
1.63354e-005
1.63602e-005
1.63847e-005
1.64089e-005
1.64323e-005
1.64552e-005
1.64769e-005
1.64927e-005
1.67648e-005
1.67846e-005
1.68144e-005
1.68422e-005
1.68686e-005
1.68948e-005
1.6921e-005
1.69469e-005
1.69724e-005
1.69972e-005
1.70212e-005
1.70443e-005
1.7066e-005
1.70814e-005
1.73271e-005
1.73479e-005
1.73792e-005
1.74084e-005
1.74362e-005
1.74638e-005
1.74912e-005
1.75182e-005
1.75447e-005
1.75704e-005
1.7595e-005
1.76187e-005
1.76408e-005
1.76568e-005
1.78724e-005
1.78942e-005
1.79269e-005
1.79575e-005
1.79867e-005
1.80156e-005
1.80443e-005
1.80725e-005
1.81001e-005
1.81269e-005
1.81524e-005
1.8177e-005
1.82001e-005
1.82174e-005
1.83997e-005
1.84225e-005
1.84564e-005
1.84884e-005
1.8519e-005
1.85493e-005
1.85794e-005
1.86091e-005
1.8638e-005
1.8666e-005
1.86928e-005
1.87186e-005
1.87432e-005
1.87619e-005
1.89082e-005
1.8932e-005
1.89674e-005
1.90008e-005
1.90328e-005
1.90646e-005
1.90962e-005
1.91274e-005
1.91578e-005
1.91874e-005
1.92157e-005
1.92429e-005
1.92696e-005
1.92894e-005
1.93969e-005
1.94219e-005
1.94588e-005
1.94938e-005
1.95272e-005
1.95606e-005
1.95938e-005
1.96266e-005
1.96588e-005
1.96901e-005
1.972e-005
1.975e-005
1.97775e-005
1.97985e-005
1.98646e-005
1.98908e-005
1.99295e-005
1.99661e-005
2.00011e-005
2.0036e-005
2.00709e-005
2.01056e-005
2.01396e-005
2.01729e-005
2.02052e-005
2.02364e-005
2.02658e-005
2.02877e-005
2.03101e-005
2.03376e-005
2.0378e-005
2.04162e-005
2.04529e-005
2.04896e-005
2.05262e-005
2.05626e-005
2.05986e-005
2.0634e-005
2.06684e-005
2.07017e-005
2.07329e-005
2.07553e-005
2.07321e-005
2.07609e-005
2.08032e-005
2.08432e-005
2.08816e-005
2.092e-005
2.09585e-005
2.09969e-005
2.10349e-005
2.10725e-005
2.11091e-005
2.11445e-005
2.11774e-005
2.12003e-005
2.11296e-005
2.11599e-005
2.12044e-005
2.12463e-005
2.12866e-005
2.13269e-005
2.13674e-005
2.14078e-005
2.14479e-005
2.14876e-005
2.15264e-005
2.15639e-005
2.15983e-005
2.16215e-005
2.15015e-005
2.15334e-005
2.15803e-005
2.16245e-005
2.16668e-005
2.17093e-005
2.17519e-005
2.17944e-005
2.18368e-005
2.18787e-005
2.19196e-005
2.19593e-005
2.19952e-005
2.20186e-005
2.18463e-005
2.18801e-005
2.19296e-005
2.19762e-005
2.20208e-005
2.20656e-005
2.21106e-005
2.21555e-005
2.22002e-005
2.22445e-005
2.22878e-005
2.23296e-005
2.23671e-005
2.23908e-005
2.21622e-005
2.21981e-005
2.22505e-005
2.22996e-005
2.23468e-005
2.23942e-005
2.24417e-005
2.24892e-005
2.25365e-005
2.25833e-005
2.26291e-005
2.26733e-005
2.27128e-005
2.2737e-005
2.24474e-005
2.24855e-005
2.25411e-005
2.25931e-005
2.26431e-005
2.26932e-005
2.27436e-005
2.27939e-005
2.28439e-005
2.28935e-005
2.29421e-005
2.29889e-005
2.30303e-005
2.30552e-005
2.26996e-005
2.27403e-005
2.27994e-005
2.28547e-005
2.29077e-005
2.29609e-005
2.30144e-005
2.30678e-005
2.31209e-005
2.31736e-005
2.32251e-005
2.32746e-005
2.3318e-005
2.33435e-005
2.29162e-005
2.29599e-005
2.30229e-005
2.30818e-005
2.31382e-005
2.3195e-005
2.3252e-005
2.33088e-005
2.33654e-005
2.34214e-005
2.34761e-005
2.35287e-005
2.35741e-005
2.36002e-005
2.30948e-005
2.31418e-005
2.3209e-005
2.32718e-005
2.33321e-005
2.33928e-005
2.34536e-005
2.35143e-005
2.35747e-005
2.36344e-005
2.36929e-005
2.37487e-005
2.37964e-005
2.3823e-005
2.32331e-005
2.32839e-005
2.33558e-005
2.3423e-005
2.34875e-005
2.35524e-005
2.36176e-005
2.36826e-005
2.37472e-005
2.38112e-005
2.38737e-005
2.39333e-005
2.39833e-005
2.40102e-005
2.33286e-005
2.33837e-005
2.34612e-005
2.35334e-005
2.36027e-005
2.36725e-005
2.37426e-005
2.38124e-005
2.38819e-005
2.39508e-005
2.4018e-005
2.40817e-005
2.41341e-005
2.41606e-005
2.33784e-005
2.34385e-005
2.35223e-005
2.36003e-005
2.36751e-005
2.37506e-005
2.38264e-005
2.39019e-005
2.39772e-005
2.40518e-005
2.41245e-005
2.41931e-005
2.42479e-005
2.42736e-005
2.33795e-005
2.34454e-005
2.35363e-005
2.36208e-005
2.37017e-005
2.37837e-005
2.3866e-005
2.39481e-005
2.40301e-005
2.41115e-005
2.4191e-005
2.42656e-005
2.43235e-005
2.43478e-005
2.33288e-005
2.34015e-005
2.35004e-005
2.35922e-005
2.36801e-005
2.37693e-005
2.3859e-005
2.39487e-005
2.40385e-005
2.4128e-005
2.42156e-005
2.42974e-005
2.43591e-005
2.4382e-005
2.3223e-005
2.33036e-005
2.34119e-005
2.3512e-005
2.36079e-005
2.37055e-005
2.38037e-005
2.39022e-005
2.40011e-005
2.41002e-005
2.41973e-005
2.42876e-005
2.43538e-005
2.43748e-005
2.30591e-005
2.31488e-005
2.32678e-005
2.33776e-005
2.34827e-005
2.359e-005
2.3698e-005
2.38067e-005
2.39163e-005
2.40264e-005
2.41347e-005
2.4235e-005
2.43063e-005
2.43251e-005
2.28338e-005
2.29341e-005
2.30653e-005
2.3186e-005
2.33016e-005
2.34199e-005
2.35392e-005
2.36596e-005
2.37813e-005
2.39042e-005
2.40254e-005
2.41372e-005
2.42147e-005
2.4231e-005
2.25441e-005
2.26565e-005
2.28018e-005
2.29349e-005
2.30623e-005
2.3193e-005
2.3325e-005
2.34585e-005
2.35941e-005
2.37314e-005
2.38674e-005
2.39925e-005
2.40772e-005
2.40908e-005
2.21869e-005
2.23135e-005
2.2475e-005
2.26223e-005
2.27631e-005
2.29079e-005
2.30544e-005
2.32027e-005
2.33537e-005
2.35074e-005
2.36599e-005
2.38e-005
2.38927e-005
2.39035e-005
2.17597e-005
2.19026e-005
2.20825e-005
2.22461e-005
2.24024e-005
2.25633e-005
2.27262e-005
2.28912e-005
2.30596e-005
2.32315e-005
2.34025e-005
2.35593e-005
2.3661e-005
2.36685e-005
2.12609e-005
2.14225e-005
2.16235e-005
2.18055e-005
2.19793e-005
2.21585e-005
2.23399e-005
2.25239e-005
2.27118e-005
2.29041e-005
2.30958e-005
2.32712e-005
2.33828e-005
2.33864e-005
2.069e-005
2.08729e-005
2.10979e-005
2.13008e-005
2.14941e-005
2.1694e-005
2.18963e-005
2.21014e-005
2.23112e-005
2.25263e-005
2.27409e-005
2.2937e-005
2.30593e-005
2.30584e-005
2.00472e-005
2.02545e-005
2.05066e-005
2.07332e-005
2.09487e-005
2.11716e-005
2.13972e-005
2.16258e-005
2.18599e-005
2.21002e-005
2.23403e-005
2.25592e-005
2.26932e-005
2.26869e-005
1.93337e-005
1.95685e-005
1.98513e-005
2.01045e-005
2.03449e-005
2.05937e-005
2.08451e-005
2.10998e-005
2.13606e-005
2.16287e-005
2.18969e-005
2.2141e-005
2.22877e-005
2.22747e-005
1.85517e-005
1.88174e-005
1.91347e-005
1.94174e-005
1.96853e-005
1.99628e-005
2.02428e-005
2.05263e-005
2.08166e-005
2.11152e-005
2.14143e-005
2.16861e-005
2.18464e-005
2.18256e-005
1.77041e-005
1.80046e-005
1.83603e-005
1.86757e-005
1.89738e-005
1.92828e-005
1.95942e-005
1.99092e-005
2.02318e-005
2.05639e-005
2.08969e-005
2.11989e-005
2.13736e-005
2.1343e-005
1.6794e-005
1.71333e-005
1.75317e-005
1.78833e-005
1.82145e-005
1.85579e-005
1.89035e-005
1.92528e-005
1.96104e-005
1.9979e-005
2.03487e-005
2.06834e-005
2.08732e-005
2.08307e-005
1.58253e-005
1.62073e-005
1.66527e-005
1.7044e-005
1.74117e-005
1.77926e-005
1.81754e-005
1.85617e-005
1.89571e-005
1.93651e-005
1.97745e-005
2.01444e-005
2.03497e-005
2.02927e-005
1.48049e-005
1.52335e-005
1.573e-005
1.61643e-005
1.65713e-005
1.69928e-005
1.74156e-005
1.78418e-005
1.82779e-005
1.87281e-005
1.91802e-005
1.95876e-005
1.98088e-005
1.97343e-005
1.37414e-005
1.4221e-005
1.47727e-005
1.52531e-005
1.57019e-005
1.61665e-005
1.66319e-005
1.71005e-005
1.75801e-005
1.80754e-005
1.8573e-005
1.90204e-005
1.92573e-005
1.9162e-005
1.26441e-005
1.31787e-005
1.37902e-005
1.43198e-005
1.4813e-005
1.53233e-005
1.58336e-005
1.63469e-005
1.68722e-005
1.74152e-005
1.7961e-005
1.84505e-005
1.8703e-005
1.85832e-005
1.15233e-005
1.21168e-005
1.2792e-005
1.33741e-005
1.39146e-005
1.44732e-005
1.50309e-005
1.55912e-005
1.61644e-005
1.67573e-005
1.73535e-005
1.78865e-005
1.8154e-005
1.80058e-005
1.03926e-005
1.10485e-005
1.1791e-005
1.24284e-005
1.30184e-005
1.36279e-005
1.42352e-005
1.48445e-005
1.54675e-005
1.61121e-005
1.67603e-005
1.73379e-005
1.76192e-005
1.74387e-005
9.26874e-006
9.99018e-006
1.08031e-005
1.1498e-005
1.21393e-005
1.28012e-005
1.34596e-005
1.41192e-005
1.47933e-005
1.54908e-005
1.61921e-005
1.68149e-005
1.71085e-005
1.68921e-005
8.16894e-006
8.95869e-006
9.84501e-006
1.05993e-005
1.12932e-005
1.20086e-005
1.2719e-005
1.34297e-005
1.41553e-005
1.49063e-005
1.5661e-005
1.6329e-005
1.66334e-005
1.63779e-005
7.11137e-006
7.97135e-006
8.93307e-006
9.74832e-006
1.04961e-005
1.12661e-005
1.2029e-005
1.27909e-005
1.35681e-005
1.43723e-005
1.51802e-005
1.58926e-005
1.62061e-005
1.59084e-005
6.11718e-006
7.04837e-006
8.08623e-006
8.9629e-006
9.76484e-006
1.05897e-005
1.14052e-005
1.2218e-005
1.30464e-005
1.39032e-005
1.47635e-005
1.55191e-005
1.58393e-005
1.54968e-005
5.21003e-006
6.21258e-006
7.32643e-006
8.26393e-006
9.11913e-006
9.9979e-006
1.08651e-005
1.17278e-005
1.26059e-005
1.35138e-005
1.44248e-005
1.52217e-005
1.55463e-005
1.51569e-005
4.4123e-006
5.4854e-006
6.67439e-006
7.67148e-006
8.57844e-006
9.50945e-006
1.04265e-005
1.13372e-005
1.22629e-005
1.32193e-005
1.41783e-005
1.50137e-005
1.53399e-005
1.49025e-005
3.74377e-006
4.88552e-006
6.14788e-006
7.20312e-006
8.16019e-006
9.14144e-006
1.0106e-005
1.1062e-005
1.20325e-005
1.30341e-005
1.40375e-005
1.49076e-005
1.52324e-005
1.47463e-005
3.22339e-006
4.43036e-006
5.76236e-006
6.87309e-006
7.8782e-006
8.90732e-006
9.91668e-006
1.09149e-005
1.19265e-005
1.29695e-005
1.40129e-005
1.49134e-005
1.52336e-005
1.46986e-005
2.86887e-006
4.13605e-006
5.53233e-006
6.69403e-006
7.74337e-006
8.81666e-006
9.86717e-006
1.09038e-005
1.19523e-005
1.30319e-005
1.41102e-005
1.5036e-005
1.53481e-005
1.47646e-005
2.69567e-006
4.01699e-006
5.47109e-006
6.67782e-006
7.76551e-006
8.87725e-006
9.96355e-006
1.10332e-005
1.2113e-005
1.32228e-005
1.43296e-005
1.52745e-005
1.55746e-005
1.49437e-005
2.71386e-006
4.08188e-006
5.58605e-006
6.83121e-006
7.95087e-006
9.09409e-006
1.02092e-005
1.13049e-005
1.24084e-005
1.35408e-005
1.46677e-005
1.56241e-005
1.59077e-005
1.52312e-005
2.92974e-006
4.3352e-006
5.87998e-006
7.15604e-006
8.30093e-006
9.46834e-006
1.06044e-005
1.17181e-005
1.28371e-005
1.39828e-005
1.51204e-005
1.60795e-005
1.63417e-005
1.56222e-005
3.34878e-006
4.78066e-006
6.35453e-006
7.65293e-006
8.81555e-006
9.9992e-006
1.11484e-005
1.22715e-005
1.3397e-005
1.45466e-005
1.56851e-005
1.66381e-005
1.68747e-005
1.61162e-005
3.97488e-006
5.42055e-006
7.00971e-006
8.31958e-006
9.49128e-006
1.06827e-005
1.18369e-005
1.29619e-005
1.40857e-005
1.52306e-005
1.63614e-005
1.73005e-005
1.75089e-005
1.67173e-005
4.81198e-006
6.2586e-006
7.84912e-006
9.15792e-006
1.03272e-005
1.15157e-005
1.26658e-005
1.37843e-005
1.48988e-005
1.60312e-005
1.71461e-005
1.80649e-005
1.82444e-005
1.7428e-005
5.85513e-006
7.28941e-006
8.86758e-006
1.01642e-005
1.13204e-005
1.24952e-005
1.36309e-005
1.47337e-005
1.58302e-005
1.69419e-005
1.80332e-005
1.89257e-005
1.90768e-005
1.82452e-005
7.09315e-006
8.49957e-006
1.00497e-005
1.13236e-005
1.2459e-005
1.36116e-005
1.47242e-005
1.5803e-005
1.68734e-005
1.79561e-005
1.9016e-005
1.98759e-005
1.99992e-005
1.91621e-005
8.5163e-006
9.87921e-006
1.13846e-005
1.26235e-005
1.37287e-005
1.48506e-005
1.59327e-005
1.69802e-005
1.80171e-005
1.90631e-005
2.00839e-005
2.09054e-005
2.1002e-005
2.01697e-005
1.01082e-005
1.14119e-005
1.28553e-005
1.40455e-005
1.5109e-005
1.61899e-005
1.72333e-005
1.82429e-005
1.92403e-005
2.02434e-005
2.1219e-005
2.19977e-005
2.20703e-005
2.12543e-005
1.18434e-005
1.30721e-005
1.44365e-005
1.55649e-005
1.65756e-005
1.7605e-005
1.86003e-005
1.95643e-005
2.05164e-005
2.14718e-005
2.23977e-005
2.31309e-005
2.31845e-005
2.23987e-005
1.36911e-005
1.48302e-005
1.61001e-005
1.71548e-005
1.81028e-005
1.90703e-005
2.00082e-005
2.09185e-005
2.18183e-005
2.27206e-005
2.35935e-005
2.42818e-005
2.43249e-005
2.35857e-005
1.56107e-005
1.66457e-005
1.78063e-005
1.87767e-005
1.96537e-005
2.05512e-005
2.14247e-005
2.2275e-005
2.31171e-005
2.39621e-005
2.47797e-005
2.5424e-005
2.54669e-005
2.47916e-005
1.75495e-005
1.8466e-005
1.95009e-005
2.03761e-005
2.11755e-005
2.1998e-005
2.28034e-005
2.35915e-005
2.43744e-005
2.51607e-005
2.59219e-005
2.65228e-005
2.65726e-005
2.5976e-005
1.94526e-005
2.02421e-005
2.11428e-005
2.19161e-005
2.2631e-005
2.33724e-005
2.41057e-005
2.48297e-005
2.5553e-005
2.62806e-005
2.69842e-005
2.75405e-005
2.76018e-005
2.70953e-005
2.12366e-005
2.18906e-005
2.26497e-005
2.33198e-005
2.39531e-005
2.46163e-005
2.5281e-005
2.59449e-005
2.66126e-005
2.7285e-005
2.79337e-005
2.8448e-005
2.85285e-005
2.81248e-005
2.28066e-005
2.3324e-005
2.39427e-005
2.45139e-005
2.50724e-005
2.56664e-005
2.62733e-005
2.68885e-005
2.75116e-005
2.81374e-005
2.87369e-005
2.92128e-005
2.93163e-005
2.902e-005
2.40424e-005
2.44343e-005
2.49312e-005
2.54211e-005
2.59211e-005
2.6463e-005
2.70308e-005
2.76172e-005
2.82156e-005
2.88138e-005
2.93801e-005
2.98285e-005
2.99589e-005
2.97636e-005
2.48019e-005
2.50956e-005
2.5519e-005
2.59849e-005
2.64887e-005
2.70372e-005
2.76172e-005
2.82165e-005
2.88212e-005
2.9411e-005
2.99498e-005
3.03581e-005
3.04708e-005
3.03208e-005
2.36236e-007
2.36306e-007
2.36678e-007
2.36855e-007
2.3707e-007
2.373e-007
2.37496e-007
2.37663e-007
2.37794e-007
2.37884e-007
2.3797e-007
2.38102e-007
2.3835e-007
2.38667e-007
7.24633e-007
7.25248e-007
7.26197e-007
7.26948e-007
7.27666e-007
7.2838e-007
7.2903e-007
7.29585e-007
7.30059e-007
7.30493e-007
7.30924e-007
7.3138e-007
7.31966e-007
7.32596e-007
1.23255e-006
1.2337e-006
1.23516e-006
1.23649e-006
1.23766e-006
1.23876e-006
1.23982e-006
1.24081e-006
1.24176e-006
1.24266e-006
1.24349e-006
1.24431e-006
1.24526e-006
1.24615e-006
1.73989e-006
1.74157e-006
1.74402e-006
1.74618e-006
1.74811e-006
1.74987e-006
1.75146e-006
1.75291e-006
1.75422e-006
1.75538e-006
1.7564e-006
1.75736e-006
1.75857e-006
1.75961e-006
2.24396e-006
2.24586e-006
2.24874e-006
2.2513e-006
2.25362e-006
2.25578e-006
2.25776e-006
2.25954e-006
2.26112e-006
2.26251e-006
2.26376e-006
2.26502e-006
2.26655e-006
2.26798e-006
2.74998e-006
2.75229e-006
2.75577e-006
2.75883e-006
2.76159e-006
2.76417e-006
2.76658e-006
2.7688e-006
2.77082e-006
2.77266e-006
2.77437e-006
2.77607e-006
2.77807e-006
2.77991e-006
3.25849e-006
3.26123e-006
3.26539e-006
3.26908e-006
3.2724e-006
3.27551e-006
3.27841e-006
3.28108e-006
3.28354e-006
3.28579e-006
3.28787e-006
3.28989e-006
3.29213e-006
3.29495e-006
3.76962e-006
3.77282e-006
3.77767e-006
3.782e-006
3.78592e-006
3.7896e-006
3.79306e-006
3.79629e-006
3.79927e-006
3.80203e-006
3.8046e-006
3.80721e-006
3.8103e-006
3.81322e-006
4.28334e-006
4.28697e-006
4.29252e-006
4.29748e-006
4.30201e-006
4.30632e-006
4.31043e-006
4.31431e-006
4.31799e-006
4.32149e-006
4.32489e-006
4.32843e-006
4.33256e-006
4.33632e-006
4.80015e-006
4.80422e-006
4.81048e-006
4.81609e-006
4.82125e-006
4.82619e-006
4.83096e-006
4.83557e-006
4.84003e-006
4.84437e-006
4.84866e-006
4.85315e-006
4.85832e-006
4.86292e-006
5.32062e-006
5.32513e-006
5.3321e-006
5.33839e-006
5.34422e-006
5.34988e-006
5.3554e-006
5.36081e-006
5.3661e-006
5.37131e-006
5.37648e-006
5.3819e-006
5.38815e-006
5.39373e-006
5.84491e-006
5.84986e-006
5.8575e-006
5.86446e-006
5.87098e-006
5.87737e-006
5.8837e-006
5.88999e-006
5.89626e-006
5.90257e-006
5.90902e-006
5.91592e-006
5.92393e-006
5.93101e-006
6.37305e-006
6.37839e-006
6.38663e-006
6.3942e-006
6.40135e-006
6.40844e-006
6.41557e-006
6.42281e-006
6.43023e-006
6.43793e-006
6.44603e-006
6.45488e-006
6.46515e-006
6.47414e-006
6.90544e-006
6.91112e-006
6.91988e-006
6.92801e-006
6.93578e-006
6.94358e-006
6.95156e-006
6.9598e-006
6.96841e-006
6.97752e-006
6.98729e-006
6.99808e-006
7.01067e-006
7.02169e-006
7.44323e-006
7.44926e-006
7.45854e-006
7.46724e-006
7.47562e-006
7.48414e-006
7.49297e-006
7.5022e-006
7.51198e-006
7.52249e-006
7.53393e-006
7.54673e-006
7.5618e-006
7.57505e-006
7.98745e-006
7.99384e-006
8.00364e-006
8.01292e-006
8.02195e-006
8.03121e-006
8.04091e-006
8.0512e-006
8.06227e-006
8.07434e-006
8.08771e-006
8.10284e-006
8.12075e-006
8.13653e-006
8.53883e-006
8.54558e-006
8.55591e-006
8.56579e-006
8.5755e-006
8.58557e-006
8.59623e-006
8.60768e-006
8.62017e-006
8.63398e-006
8.64945e-006
8.66708e-006
8.68794e-006
8.70627e-006
9.09816e-006
9.10532e-006
9.11622e-006
9.12676e-006
9.13718e-006
9.14808e-006
9.15972e-006
9.17233e-006
9.18619e-006
9.20162e-006
9.21902e-006
9.23888e-006
9.26237e-006
9.28298e-006
9.66606e-006
9.67368e-006
9.68522e-006
9.69645e-006
9.70761e-006
9.71932e-006
9.73187e-006
9.74552e-006
9.76055e-006
9.77733e-006
9.79627e-006
9.81791e-006
9.84348e-006
9.86591e-006
1.02428e-005
1.02509e-005
1.02632e-005
1.02751e-005
1.0287e-005
1.02995e-005
1.03129e-005
1.03275e-005
1.03435e-005
1.03614e-005
1.03815e-005
1.04046e-005
1.04317e-005
1.04556e-005
1.08281e-005
1.08368e-005
1.08498e-005
1.08626e-005
1.08753e-005
1.08886e-005
1.09028e-005
1.09183e-005
1.09352e-005
1.0954e-005
1.09752e-005
1.09993e-005
1.10276e-005
1.10525e-005
1.14212e-005
1.14306e-005
1.14446e-005
1.14582e-005
1.14718e-005
1.1486e-005
1.15011e-005
1.15174e-005
1.15352e-005
1.15549e-005
1.15769e-005
1.16017e-005
1.16307e-005
1.16562e-005
1.20213e-005
1.20314e-005
1.20464e-005
1.2061e-005
1.20755e-005
1.20906e-005
1.21067e-005
1.21239e-005
1.21424e-005
1.21628e-005
1.21853e-005
1.22105e-005
1.22398e-005
1.22654e-005
1.26268e-005
1.26377e-005
1.26538e-005
1.26696e-005
1.26851e-005
1.27012e-005
1.27181e-005
1.27361e-005
1.27553e-005
1.27762e-005
1.27989e-005
1.28242e-005
1.28531e-005
1.28785e-005
1.32361e-005
1.32478e-005
1.32652e-005
1.32821e-005
1.32987e-005
1.33158e-005
1.33337e-005
1.33524e-005
1.33723e-005
1.33934e-005
1.34162e-005
1.34412e-005
1.34694e-005
1.3494e-005
1.38471e-005
1.38597e-005
1.38785e-005
1.38966e-005
1.39144e-005
1.39326e-005
1.39515e-005
1.3971e-005
1.39914e-005
1.40128e-005
1.40355e-005
1.40599e-005
1.4087e-005
1.41104e-005
1.44576e-005
1.44712e-005
1.44915e-005
1.4511e-005
1.453e-005
1.45494e-005
1.45692e-005
1.45896e-005
1.46106e-005
1.46322e-005
1.46547e-005
1.46784e-005
1.47042e-005
1.47261e-005
1.5065e-005
1.50798e-005
1.51017e-005
1.51226e-005
1.51429e-005
1.51635e-005
1.51844e-005
1.52056e-005
1.52272e-005
1.5249e-005
1.52713e-005
1.52942e-005
1.53185e-005
1.53388e-005
1.56666e-005
1.56825e-005
1.5706e-005
1.57284e-005
1.575e-005
1.57718e-005
1.57938e-005
1.58159e-005
1.58381e-005
1.58602e-005
1.58822e-005
1.59044e-005
1.59272e-005
1.59459e-005
1.62592e-005
1.62761e-005
1.63013e-005
1.63251e-005
1.63481e-005
1.63711e-005
1.63941e-005
1.64171e-005
1.64399e-005
1.64623e-005
1.64841e-005
1.65057e-005
1.65273e-005
1.65448e-005
1.68397e-005
1.68577e-005
1.68843e-005
1.69095e-005
1.69338e-005
1.6958e-005
1.69822e-005
1.70061e-005
1.70295e-005
1.70523e-005
1.70742e-005
1.70954e-005
1.71162e-005
1.71331e-005
1.74057e-005
1.74246e-005
1.74526e-005
1.74791e-005
1.75046e-005
1.753e-005
1.75554e-005
1.75803e-005
1.76046e-005
1.76281e-005
1.76503e-005
1.76715e-005
1.76922e-005
1.77091e-005
1.79552e-005
1.7975e-005
1.80041e-005
1.80319e-005
1.80587e-005
1.80855e-005
1.8112e-005
1.81382e-005
1.81636e-005
1.81879e-005
1.82109e-005
1.82327e-005
1.82537e-005
1.82714e-005
1.84869e-005
1.85077e-005
1.8538e-005
1.8567e-005
1.85951e-005
1.86232e-005
1.86511e-005
1.86786e-005
1.87052e-005
1.87308e-005
1.87549e-005
1.87776e-005
1.87995e-005
1.88187e-005
1.90001e-005
1.90218e-005
1.90534e-005
1.90838e-005
1.91132e-005
1.91427e-005
1.9172e-005
1.92008e-005
1.92289e-005
1.92558e-005
1.92813e-005
1.93054e-005
1.93288e-005
1.93491e-005
1.94937e-005
1.95164e-005
1.95495e-005
1.95812e-005
1.9612e-005
1.96429e-005
1.96736e-005
1.97039e-005
1.97334e-005
1.97619e-005
1.97889e-005
1.98148e-005
1.98401e-005
1.98614e-005
1.99663e-005
1.99902e-005
2.00249e-005
2.00581e-005
2.00903e-005
2.01226e-005
2.01548e-005
2.01866e-005
2.02176e-005
2.02477e-005
2.02765e-005
2.03043e-005
2.03314e-005
2.03541e-005
2.04171e-005
2.04421e-005
2.04784e-005
2.05131e-005
2.05468e-005
2.05806e-005
2.06143e-005
2.06476e-005
2.06803e-005
2.07121e-005
2.07428e-005
2.07725e-005
2.08017e-005
2.08257e-005
2.08446e-005
2.08708e-005
2.09089e-005
2.09453e-005
2.09806e-005
2.1016e-005
2.10512e-005
2.10862e-005
2.11206e-005
2.11543e-005
2.11869e-005
2.12186e-005
2.12497e-005
2.12749e-005
2.1248e-005
2.12756e-005
2.13157e-005
2.1354e-005
2.1391e-005
2.14282e-005
2.14653e-005
2.1502e-005
2.15383e-005
2.15738e-005
2.16083e-005
2.16419e-005
2.16747e-005
2.17007e-005
2.16264e-005
2.16556e-005
2.16979e-005
2.17383e-005
2.17773e-005
2.18164e-005
2.18555e-005
2.18943e-005
2.19325e-005
2.19699e-005
2.20063e-005
2.20416e-005
2.20759e-005
2.21025e-005
2.19784e-005
2.20094e-005
2.20543e-005
2.20969e-005
2.21381e-005
2.21795e-005
2.22207e-005
2.22616e-005
2.23019e-005
2.23414e-005
2.23797e-005
2.24168e-005
2.24524e-005
2.24796e-005
2.23024e-005
2.23353e-005
2.2383e-005
2.24281e-005
2.24718e-005
2.25155e-005
2.25591e-005
2.26023e-005
2.26449e-005
2.26865e-005
2.27267e-005
2.27655e-005
2.28025e-005
2.28303e-005
2.25966e-005
2.26318e-005
2.26824e-005
2.27303e-005
2.27765e-005
2.28228e-005
2.2869e-005
2.29147e-005
2.29596e-005
2.30033e-005
2.30454e-005
2.30858e-005
2.31241e-005
2.31525e-005
2.28591e-005
2.28967e-005
2.29506e-005
2.30015e-005
2.30507e-005
2.30999e-005
2.31489e-005
2.31972e-005
2.32445e-005
2.32904e-005
2.33343e-005
2.33762e-005
2.34154e-005
2.34442e-005
2.30874e-005
2.31278e-005
2.31854e-005
2.32396e-005
2.3292e-005
2.33445e-005
2.33966e-005
2.34479e-005
2.34978e-005
2.3546e-005
2.35918e-005
2.36349e-005
2.36747e-005
2.37036e-005
2.32796e-005
2.33232e-005
2.33847e-005
2.34426e-005
2.34986e-005
2.35546e-005
2.36101e-005
2.36646e-005
2.37174e-005
2.3768e-005
2.38157e-005
2.386e-005
2.39e-005
2.39288e-005
2.34336e-005
2.34807e-005
2.35467e-005
2.36087e-005
2.36687e-005
2.37286e-005
2.37879e-005
2.38458e-005
2.39017e-005
2.39549e-005
2.40044e-005
2.40497e-005
2.40895e-005
2.41176e-005
2.35471e-005
2.35984e-005
2.36696e-005
2.37363e-005
2.38007e-005
2.38652e-005
2.39287e-005
2.39905e-005
2.40498e-005
2.41057e-005
2.41571e-005
2.4203e-005
2.42421e-005
2.42688e-005
2.3618e-005
2.36742e-005
2.37512e-005
2.38231e-005
2.38927e-005
2.39622e-005
2.40306e-005
2.40968e-005
2.41599e-005
2.42189e-005
2.42723e-005
2.43189e-005
2.43568e-005
2.43814e-005
2.36437e-005
2.37055e-005
2.37891e-005
2.3867e-005
2.39423e-005
2.40175e-005
2.40912e-005
2.41623e-005
2.42297e-005
2.42923e-005
2.43481e-005
2.43957e-005
2.44324e-005
2.44546e-005
2.36215e-005
2.36897e-005
2.37809e-005
2.38656e-005
2.39473e-005
2.40288e-005
2.41086e-005
2.41852e-005
2.42575e-005
2.43241e-005
2.43829e-005
2.44317e-005
2.44674e-005
2.44869e-005
2.35489e-005
2.36247e-005
2.37246e-005
2.3817e-005
2.39059e-005
2.39947e-005
2.40814e-005
2.41642e-005
2.42421e-005
2.43133e-005
2.43755e-005
2.44259e-005
2.44604e-005
2.44768e-005
2.34233e-005
2.3508e-005
2.36179e-005
2.3719e-005
2.38164e-005
2.39135e-005
2.4008e-005
2.4098e-005
2.41822e-005
2.42588e-005
2.43248e-005
2.43769e-005
2.44101e-005
2.44227e-005
2.32419e-005
2.33368e-005
2.34584e-005
2.35695e-005
2.36764e-005
2.3783e-005
2.38864e-005
2.39846e-005
2.40761e-005
2.41587e-005
2.42291e-005
2.42831e-005
2.43146e-005
2.43229e-005
2.30022e-005
2.31088e-005
2.32437e-005
2.33663e-005
2.34841e-005
2.36015e-005
2.37151e-005
2.38226e-005
2.39222e-005
2.40117e-005
2.40869e-005
2.41428e-005
2.41723e-005
2.41755e-005
2.27017e-005
2.2822e-005
2.29721e-005
2.31078e-005
2.32381e-005
2.3368e-005
2.34932e-005
2.36113e-005
2.37203e-005
2.38173e-005
2.38978e-005
2.39554e-005
2.39819e-005
2.39789e-005
2.23388e-005
2.24748e-005
2.26423e-005
2.2793e-005
2.29377e-005
2.30818e-005
2.32204e-005
2.33506e-005
2.34701e-005
2.35755e-005
2.36615e-005
2.37204e-005
2.37426e-005
2.37319e-005
2.19123e-005
2.20662e-005
2.22537e-005
2.24215e-005
2.25824e-005
2.27429e-005
2.28969e-005
2.30409e-005
2.31722e-005
2.32869e-005
2.33786e-005
2.34382e-005
2.34547e-005
2.34346e-005
2.14217e-005
2.15962e-005
2.18062e-005
2.19935e-005
2.21729e-005
2.23519e-005
2.25233e-005
2.26829e-005
2.28275e-005
2.29525e-005
2.30502e-005
2.31098e-005
2.31186e-005
2.30873e-005
2.08676e-005
2.10655e-005
2.13012e-005
2.15104e-005
2.17108e-005
2.19107e-005
2.21016e-005
2.22787e-005
2.2438e-005
2.25741e-005
2.26779e-005
2.27367e-005
2.27361e-005
2.26912e-005
2.02516e-005